# Region type :       patch INLET
# Faces               : 25600
# Area                : 3.57823331707631e-02
# Scale factor        : 1.00000000000000e+00
# Time                	sum(phi)
0.0002                	-5.63370115913688e-02
0.0004                	-5.63809383727363e-02
0.0006                	-5.64112891443500e-02
0.0008                	-5.64234992825744e-02
0.001                 	-5.64310374780463e-02
0.0012                	-5.64357233931985e-02
0.0014                	-5.64572839493804e-02
0.0016                	-5.64752282234363e-02
0.0018                	-5.64747258809595e-02
0.002                 	-5.64755395473975e-02
0.0022                	-5.64787335754481e-02
0.0024                	-5.64901726660938e-02
0.0026                	-5.65148365383426e-02
0.0028                	-5.65422636205031e-02
0.003                 	-5.65590008332844e-02
0.0032                	-5.65754769574275e-02
0.0034                	-5.65867859839344e-02
0.0036                	-5.66094241664204e-02
0.0038                	-5.66269510881281e-02
0.004                 	-5.66223627734813e-02
0.0042                	-5.66140170365013e-02
0.0044                	-5.66060518875577e-02
0.0046                	-5.65871111250614e-02
0.0048                	-5.65732997661883e-02
0.005                 	-5.65599359196736e-02
0.0052                	-5.65422339659326e-02
0.0054                	-5.65315745381727e-02
0.0056                	-5.65080842420950e-02
0.0058                	-5.64782172819514e-02
0.006                 	-5.64682519656116e-02
0.0062                	-5.64741188496568e-02
0.0064                	-5.64750085110319e-02
0.0066                	-5.64673890153267e-02
0.0068                	-5.64379452167319e-02
0.007                 	-5.64248471585680e-02
0.0072                	-5.64205212910472e-02
0.0074                	-5.64031605312764e-02
0.0076                	-5.63706194252577e-02
0.0078                	-5.63362574419065e-02
0.008                 	-5.63158452292890e-02
0.0082                	-5.63113964745768e-02
0.0084                	-5.63114868956915e-02
0.0086                	-5.62974500616738e-02
0.0088                	-5.62795239297541e-02
0.009                 	-5.62602033423849e-02
0.0092                	-5.62418397842998e-02
0.0094                	-5.62331409166086e-02
0.0096                	-5.62266610889318e-02
0.0098                	-5.62176307828626e-02
0.01                  	-5.62077299622736e-02
0.0102                	-5.61861119158320e-02
0.0104                	-5.61606405782151e-02
0.0106                	-5.61316965436433e-02
0.0108                	-5.60972375682453e-02
0.011                 	-5.60638101565895e-02
0.0112                	-5.60417100342763e-02
0.0114                	-5.60115123296626e-02
0.0116                	-5.59825481676015e-02
0.0118                	-5.59464173693045e-02
0.012                 	-5.59067865102350e-02
0.0122                	-5.58734637051164e-02
0.0124                	-5.58546960951680e-02
0.0126                	-5.58329165422693e-02
0.0128                	-5.58087331212866e-02
0.013                 	-5.57718309777526e-02
0.0132                	-5.57258284056261e-02
0.0134                	-5.56698106425001e-02
0.0136                	-5.56386475697329e-02
0.0138                	-5.56287709231736e-02
0.014                 	-5.56096574735186e-02
0.0142                	-5.55817924646345e-02
0.0144                	-5.55531699655646e-02
0.0146                	-5.55372066414617e-02
0.0148                	-5.55231999487626e-02
0.015                 	-5.55074336710416e-02
0.0152                	-5.54862515814016e-02
0.0154                	-5.54802917560364e-02
0.0156                	-5.55041714693559e-02
0.0158                	-5.55355332465704e-02
0.016                 	-5.55392173276710e-02
0.0162                	-5.55435475473208e-02
0.0164                	-5.55655839180565e-02
0.0166                	-5.56037818497160e-02
0.0168                	-5.56273994154078e-02
0.017                 	-5.56273635458981e-02
0.0172                	-5.56126242504040e-02
0.0174                	-5.55915482198232e-02
0.0176                	-5.55710914421124e-02
0.0178                	-5.55377886683508e-02
0.018                 	-5.55164512158364e-02
0.0182                	-5.55098216520018e-02
0.0184                	-5.55086880781638e-02
0.0186                	-5.55060984389857e-02
0.0188                	-5.54880647314935e-02
0.019                 	-5.54700503411882e-02
0.0192                	-5.54699831057672e-02
0.0194                	-5.54924664926329e-02
0.0196                	-5.54962702616280e-02
0.0198                	-5.54909318227589e-02
0.02                  	-5.54900315190367e-02
0.0202                	-5.54886118526889e-02
0.0204                	-5.54829490770803e-02
0.0206                	-5.54791561081508e-02
0.0208                	-5.54703071852749e-02
0.021                 	-5.54520813217294e-02
0.0212                	-5.54585800078466e-02
0.0214                	-5.54755792166019e-02
0.0216                	-5.54869765754006e-02
0.0218                	-5.54872372454777e-02
0.022                 	-5.54855780243678e-02
0.0222                	-5.54883486395822e-02
0.0224                	-5.54981638210655e-02
0.0226                	-5.55176189756176e-02
0.0228                	-5.55135705865822e-02
0.023                 	-5.54947458906693e-02
0.0232                	-5.54753961361315e-02
0.0234                	-5.54703637350854e-02
0.0236                	-5.54927593708480e-02
0.0238                	-5.55089043669448e-02
0.024                 	-5.55175231694930e-02
0.0242                	-5.55284063645565e-02
0.0244                	-5.55514730422244e-02
0.0246                	-5.55954004622218e-02
0.0248                	-5.56289077983495e-02
0.025                 	-5.56484739136746e-02
0.0252                	-5.56662134049421e-02
0.0254                	-5.57048548922587e-02
0.0256                	-5.57599973101520e-02
0.0258                	-5.58107095505899e-02
0.026                 	-5.58405106959636e-02
0.0262                	-5.58487254701062e-02
0.0264                	-5.58723053164416e-02
0.0266                	-5.59033695133669e-02
0.0268                	-5.59398698839573e-02
0.027                 	-5.59635428873034e-02
0.0272                	-5.59842601116036e-02
0.0274                	-5.60053934465131e-02
0.0276                	-5.60248600044066e-02
0.0278                	-5.60503350647270e-02
0.028                 	-5.60764326235522e-02
0.0282                	-5.60944601869333e-02
0.0284                	-5.61244580572611e-02
0.0286                	-5.61640942856519e-02
0.0288                	-5.61994145421893e-02
0.029                 	-5.62045164529777e-02
0.0292                	-5.62075446798322e-02
0.0294                	-5.61949946825724e-02
0.0296                	-5.61967290558640e-02
0.0298                	-5.62121192749486e-02
0.03                  	-5.62095228870889e-02
0.0302                	-5.61851257202371e-02
0.0304                	-5.61636129811418e-02
0.0306                	-5.61553841351173e-02
0.0308                	-5.61686986480335e-02
0.031                 	-5.62036364743969e-02
0.0312                	-5.62324051390613e-02
0.0314                	-5.62665567843847e-02
0.0316                	-5.62905975706687e-02
0.0318                	-5.62975587171464e-02
0.032                 	-5.62980241076061e-02
0.0322                	-5.63102096192639e-02
0.0324                	-5.63378894464331e-02
0.0326                	-5.63672917502837e-02
0.0328                	-5.63788429347817e-02
0.033                 	-5.63773910062891e-02
0.0332                	-5.63928455063632e-02
0.0334                	-5.64328041860385e-02
0.0336                	-5.64918172490125e-02
0.0338                	-5.65412579538551e-02
0.034                 	-5.65881047932239e-02
0.0342                	-5.66383338876413e-02
0.0344                	-5.66917025770441e-02
0.0346                	-5.67481328694888e-02
0.0348                	-5.68119083062346e-02
0.035                 	-5.68683042759021e-02
0.0352                	-5.69207200336858e-02
0.0354                	-5.69613662534501e-02
0.0356                	-5.69807456911253e-02
0.0358                	-5.69984571555246e-02
0.036                 	-5.70263418033810e-02
0.0362                	-5.70660882091478e-02
0.0364                	-5.70942458207750e-02
0.0366                	-5.71141806326693e-02
0.0368                	-5.71317192756776e-02
0.037                 	-5.71571631868383e-02
0.0372                	-5.71916022438746e-02
0.0374                	-5.72170558133516e-02
0.0376                	-5.72442043402013e-02
0.0378                	-5.72572067177464e-02
0.038                 	-5.72581997234473e-02
0.0382                	-5.72634645619660e-02
0.0384                	-5.72630841684896e-02
0.0386                	-5.72690467106707e-02
0.0388                	-5.72727537537595e-02
0.039                 	-5.72544290036417e-02
0.0392                	-5.72074389110308e-02
0.0394                	-5.71807030320019e-02
0.0396                	-5.71679684553069e-02
0.0398                	-5.71440006744917e-02
0.04                  	-5.71150521752075e-02
0.0402                	-5.70795240124396e-02
0.0404                	-5.70593772640312e-02
0.0406                	-5.70512946492134e-02
0.0408                	-5.70317352765632e-02
0.041                 	-5.70020466788643e-02
0.0412                	-5.69862886601653e-02
0.0414                	-5.69798354985440e-02
0.0416                	-5.69615704365867e-02
0.0418                	-5.69265480382448e-02
0.042                 	-5.68975424203498e-02
0.0422                	-5.68886199883316e-02
0.0424                	-5.68958729086053e-02
0.0426                	-5.68897670131529e-02
0.0428                	-5.68677658780009e-02
0.043                 	-5.68460384953341e-02
0.0432                	-5.68365514618099e-02
0.0434                	-5.68506972466324e-02
0.0436                	-5.68548021870130e-02
0.0438                	-5.68443243205917e-02
0.044                 	-5.68324317208552e-02
0.0442                	-5.68125415061064e-02
0.0444                	-5.67859747195275e-02
0.0446                	-5.67604577069022e-02
0.0448                	-5.67478184666682e-02
0.045                 	-5.67458856983037e-02
0.0452                	-5.67458436630753e-02
0.0454                	-5.67273450141290e-02
0.0456                	-5.66886964743249e-02
0.0458                	-5.66628158661687e-02
0.046                 	-5.66651357095515e-02
0.0462                	-5.66780051776257e-02
0.0464                	-5.66666070948312e-02
0.0466                	-5.66448416022728e-02
0.0468                	-5.66266740184519e-02
0.047                 	-5.66157227407426e-02
0.0472                	-5.66157736473780e-02
0.0474                	-5.66271264092977e-02
0.0476                	-5.66405764147470e-02
0.0478                	-5.66419680891069e-02
0.048                 	-5.66219681401200e-02
0.0482                	-5.66128881969565e-02
0.0484                	-5.66380079231334e-02
0.0486                	-5.66763610426136e-02
0.0488                	-5.66857137585523e-02
0.049                 	-5.66632716317295e-02
0.0492                	-5.66382945330122e-02
0.0494                	-5.66466400405994e-02
0.0496                	-5.66572075419992e-02
0.0498                	-5.66392511662910e-02
0.05                  	-5.65894970663811e-02
0.0502                	-5.65491449219591e-02
0.0504                	-5.65494420648311e-02
0.0506                	-5.65567797338764e-02
0.0508                	-5.65568909017265e-02
0.051                 	-5.65298956565958e-02
0.0512                	-5.65051418899212e-02
0.0514                	-5.65029408744210e-02
0.0516                	-5.65344868005633e-02
0.0518                	-5.65722550434210e-02
0.052                 	-5.65818078085627e-02
0.0522                	-5.65634433446048e-02
0.0524                	-5.65367149553531e-02
0.0526                	-5.65399019384943e-02
0.0528                	-5.65631379044113e-02
0.053                 	-5.65885392411952e-02
0.0532                	-5.65948729119213e-02
0.0534                	-5.65941502564248e-02
0.0536                	-5.66117516869453e-02
0.0538                	-5.66513368113651e-02
0.054                 	-5.67007673384925e-02
0.0542                	-5.67373359262359e-02
0.0544                	-5.67661805573852e-02
0.0546                	-5.67971245305120e-02
0.0548                	-5.68314896822172e-02
0.055                 	-5.68524690406449e-02
0.0552                	-5.68762388318959e-02
0.0554                	-5.68905677959504e-02
0.0556                	-5.69042246285273e-02
0.0558                	-5.69192332086664e-02
0.056                 	-5.69191444635388e-02
0.0562                	-5.69062701018236e-02
0.0564                	-5.68941720762135e-02
0.0566                	-5.68982170882487e-02
0.0568                	-5.69056947903577e-02
0.057                 	-5.69176859825866e-02
0.0572                	-5.69058098822464e-02
0.0574                	-5.68893079966154e-02
0.0576                	-5.68579015212574e-02
0.0578                	-5.68385581855365e-02
0.058                 	-5.68367289606682e-02
0.0582                	-5.68388582366385e-02
0.0584                	-5.68033043020351e-02
0.0586                	-5.67517786003115e-02
0.0588                	-5.67053168668435e-02
0.059                 	-5.66848081647440e-02
0.0592                	-5.66833408303876e-02
0.0594                	-5.66763541780990e-02
0.0596                	-5.66490844156148e-02
0.0598                	-5.66114845133552e-02
0.06                  	-5.65961103522634e-02
0.0602                	-5.65921326230145e-02
0.0604                	-5.65823581301212e-02
0.0606                	-5.65419296301636e-02
0.0608                	-5.65078318825580e-02
0.061                 	-5.64770462299409e-02
0.0612                	-5.64683555295920e-02
0.0614                	-5.64610158074951e-02
0.0616                	-5.64452072472146e-02
0.0618                	-5.64330416414371e-02
0.062                 	-5.64225009731778e-02
0.0622                	-5.64253713690131e-02
0.0624                	-5.64305555523927e-02
0.0626                	-5.64263082212155e-02
0.0628                	-5.64048930584494e-02
0.063                 	-5.63853175738421e-02
0.0632                	-5.63688220085212e-02
0.0634                	-5.63533691599405e-02
0.0636                	-5.63363644350809e-02
0.0638                	-5.63268398142673e-02
0.064                 	-5.63115407862333e-02
0.0642                	-5.63012935641188e-02
0.0644                	-5.63016823158425e-02
0.0646                	-5.62962455897044e-02
0.0648                	-5.62919966663587e-02
0.065                 	-5.62909944016906e-02
0.0652                	-5.62799495801145e-02
0.0654                	-5.62676269923053e-02
0.0656                	-5.62701023988898e-02
0.0658                	-5.62770929257662e-02
0.066                 	-5.62836176332785e-02
0.0662                	-5.62889625533720e-02
0.0664                	-5.62856268257699e-02
0.0666                	-5.62891423033442e-02
0.0668                	-5.62916417100273e-02
0.067                 	-5.62921316273143e-02
0.0672                	-5.62867206490610e-02
0.0674                	-5.62966154279266e-02
0.0676                	-5.63217750741890e-02
0.0678                	-5.63532123355279e-02
0.068                 	-5.63797762521687e-02
0.0682                	-5.63928166181487e-02
0.0684                	-5.64062574030072e-02
0.0686                	-5.64353607192444e-02
0.0688                	-5.64759220082649e-02
0.069                 	-5.65039185949566e-02
0.0692                	-5.65122145554021e-02
0.0694                	-5.65030371220217e-02
0.0696                	-5.65088571821758e-02
0.0698                	-5.65478896944571e-02
0.07                  	-5.65930434510913e-02
0.0702                	-5.66080094821012e-02
0.0704                	-5.65869299023704e-02
0.0706                	-5.65719782491946e-02
0.0708                	-5.65884870947595e-02
0.071                 	-5.66160787664332e-02
0.0712                	-5.66069514508230e-02
0.0714                	-5.65843519550956e-02
0.0716                	-5.65657125667563e-02
0.0718                	-5.65809706395754e-02
0.072                 	-5.66054265120996e-02
0.0722                	-5.66092588909900e-02
0.0724                	-5.65903715709322e-02
0.0726                	-5.65833729479301e-02
0.0728                	-5.65985483898090e-02
0.073                 	-5.66101399357851e-02
0.0732                	-5.66101313884618e-02
0.0734                	-5.65931869430857e-02
0.0736                	-5.65808653836442e-02
0.0738                	-5.65653198988636e-02
0.074                 	-5.65643620191167e-02
0.0742                	-5.65853255253177e-02
0.0744                	-5.66086672756538e-02
0.0746                	-5.66242238671663e-02
0.0748                	-5.66315137814366e-02
0.075                 	-5.66430200720766e-02
0.0752                	-5.66615105735284e-02
0.0754                	-5.66847371997992e-02
0.0756                	-5.66984874504043e-02
0.0758                	-5.66920224774525e-02
0.076                 	-5.66789549820783e-02
0.0762                	-5.66723596921447e-02
0.0764                	-5.66628190714732e-02
0.0766                	-5.66440507272835e-02
0.0768                	-5.66307743783338e-02
0.077                 	-5.66380919449724e-02
0.0772                	-5.66342427990707e-02
0.0774                	-5.66299143460436e-02
0.0776                	-5.66273439615411e-02
0.0778                	-5.66297435004212e-02
0.078                 	-5.66383247795008e-02
0.0782                	-5.66476845497133e-02
0.0784                	-5.66599251509084e-02
0.0786                	-5.66610333972218e-02
0.0788                	-5.66671769075161e-02
0.079                 	-5.66632861483813e-02
0.0792                	-5.66501829691845e-02
0.0794                	-5.66316474403029e-02
0.0796                	-5.66133297428941e-02
0.0798                	-5.65943209111076e-02
0.08                  	-5.65870782098947e-02
0.0802                	-5.65919409351214e-02
0.0804                	-5.65942404845966e-02
0.0806                	-5.65803860836943e-02
0.0808                	-5.65680556006247e-02
0.081                 	-5.65561724029639e-02
0.0812                	-5.65557413938495e-02
0.0814                	-5.65583599705510e-02
0.0816                	-5.65529822897713e-02
0.0818                	-5.65444398691485e-02
0.082                 	-5.65432716090268e-02
0.0822                	-5.65456781625793e-02
0.0824                	-5.65466246516225e-02
0.0826                	-5.65414771554808e-02
0.0828                	-5.65332974201612e-02
0.083                 	-5.65308966560720e-02
0.0832                	-5.65242519910164e-02
0.0834                	-5.65122453543163e-02
0.0836                	-5.64942780812946e-02
0.0838                	-5.64760361831527e-02
0.084                 	-5.64638590263476e-02
0.0842                	-5.64633722593684e-02
0.0844                	-5.64668741982938e-02
0.0846                	-5.64523120176502e-02
0.0848                	-5.64475436260188e-02
0.085                 	-5.64591374132888e-02
0.0852                	-5.64721249820911e-02
0.0854                	-5.64735074107264e-02
0.0856                	-5.64593669314021e-02
0.0858                	-5.64389863948391e-02
0.086                 	-5.64377032207420e-02
0.0862                	-5.64357824343094e-02
0.0864                	-5.64141739273202e-02
0.0866                	-5.63736998800723e-02
0.0868                	-5.63470882208651e-02
0.087                 	-5.63272348905844e-02
0.0872                	-5.63241689428311e-02
0.0874                	-5.63275390211837e-02
0.0876                	-5.63332318555871e-02
0.0878                	-5.63347858721880e-02
0.088                 	-5.63311430074884e-02
0.0882                	-5.63180818077040e-02
0.0884                	-5.63073724560748e-02
0.0886                	-5.63178146980667e-02
0.0888                	-5.63205026175820e-02
0.089                 	-5.62944625880270e-02
0.0892                	-5.62544823571526e-02
0.0894                	-5.62111796352839e-02
0.0896                	-5.61965096270255e-02
0.0898                	-5.62005165285355e-02
0.09                  	-5.62002058228858e-02
0.0902                	-5.61753575352994e-02
0.0904                	-5.61531242537386e-02
0.0906                	-5.61465917073572e-02
0.0908                	-5.61629369093999e-02
0.091                 	-5.61769714056128e-02
0.0912                	-5.61613956441798e-02
0.0914                	-5.61242282925204e-02
0.0916                	-5.61035102979596e-02
0.0918                	-5.61130770037164e-02
0.092                 	-5.61308789063432e-02
0.0922                	-5.61281336432968e-02
0.0924                	-5.60856238080127e-02
0.0926                	-5.60482271182570e-02
0.0928                	-5.60248557495570e-02
0.093                 	-5.60153186573923e-02
0.0932                	-5.60026238704744e-02
0.0934                	-5.59697550767220e-02
0.0936                	-5.59378524618632e-02
0.0938                	-5.59187102960404e-02
0.094                 	-5.59082597412100e-02
0.0942                	-5.58882327208968e-02
0.0944                	-5.58658038760940e-02
0.0946                	-5.58382730212129e-02
0.0948                	-5.58170180688259e-02
0.095                 	-5.57982959402804e-02
0.0952                	-5.57673765059019e-02
0.0954                	-5.57258904386631e-02
0.0956                	-5.56862282771183e-02
0.0958                	-5.56645155440252e-02
0.096                 	-5.56495335650467e-02
0.0962                	-5.56223108153077e-02
0.0964                	-5.55794094053883e-02
0.0966                	-5.55415415966114e-02
0.0968                	-5.55157666515920e-02
0.097                 	-5.54996654400975e-02
0.0972                	-5.54848234035755e-02
0.0974                	-5.54689622876942e-02
0.0976                	-5.54555241215456e-02
0.0978                	-5.54484945142575e-02
0.098                 	-5.54338929964297e-02
0.0982                	-5.54110005363504e-02
0.0984                	-5.54039836183216e-02
0.0986                	-5.54149948179083e-02
0.0988                	-5.54205166883115e-02
0.099                 	-5.54165469276349e-02
0.0992                	-5.54231488965754e-02
0.0994                	-5.54486217794206e-02
0.0996                	-5.54788521755992e-02
0.0998                	-5.55032420159656e-02
0.1                   	-5.55114847428519e-02
0.1002                	-5.55173038186766e-02
0.1004                	-5.55451393163040e-02
0.1006                	-5.55686264240987e-02
0.1008                	-5.55911753024119e-02
0.101                 	-5.56080477656713e-02
0.1012                	-5.56191685547096e-02
0.1014                	-5.56223150938925e-02
0.1016                	-5.56433256621693e-02
0.1018                	-5.56724876971452e-02
0.102                 	-5.57130364529425e-02
0.1022                	-5.57409043410845e-02
0.1024                	-5.57481147354639e-02
0.1026                	-5.57702234015856e-02
0.1028                	-5.57993560413118e-02
0.103                 	-5.58203876654781e-02
0.1032                	-5.58397791684482e-02
0.1034                	-5.58484483626209e-02
0.1036                	-5.58606874661409e-02
0.1038                	-5.58722811572182e-02
0.104                 	-5.58749078380478e-02
0.1042                	-5.58652127412115e-02
0.1044                	-5.58684727634605e-02
0.1046                	-5.58894261312561e-02
0.1048                	-5.59091880271028e-02
0.105                 	-5.59279170053733e-02
0.1052                	-5.59269415878589e-02
0.1054                	-5.59282231003227e-02
0.1056                	-5.59363109614879e-02
0.1058                	-5.59497725584828e-02
0.106                 	-5.59601399672822e-02
0.1062                	-5.59539266970732e-02
0.1064                	-5.59463985323386e-02
0.1066                	-5.59558556748800e-02
0.1068                	-5.59881627393362e-02
0.107                 	-5.60090067287952e-02
0.1072                	-5.60070264145056e-02
0.1074                	-5.59874421407540e-02
0.1076                	-5.59892963885376e-02
0.1078                	-5.60131274075118e-02
0.108                 	-5.60364301578992e-02
0.1082                	-5.60403318242145e-02
0.1084                	-5.60338498917878e-02
0.1086                	-5.60397412110165e-02
0.1088                	-5.60564022990578e-02
0.109                 	-5.60729479508179e-02
0.1092                	-5.60846639306293e-02
0.1094                	-5.60943625149908e-02
0.1096                	-5.61044823519726e-02
0.1098                	-5.61156298492081e-02
0.11                  	-5.61153759577776e-02
0.1102                	-5.61055366604061e-02
0.1104                	-5.60889417696062e-02
0.1106                	-5.60720478571555e-02
0.1108                	-5.60571906262436e-02
0.111                 	-5.60523838979442e-02
0.1112                	-5.60352535961738e-02
0.1114                	-5.60005315612003e-02
0.1116                	-5.59654150371082e-02
0.1118                	-5.59516390968268e-02
0.112                 	-5.59659904109167e-02
0.1122                	-5.59760816875836e-02
0.1124                	-5.59613659960015e-02
0.1126                	-5.59408189021234e-02
0.1128                	-5.59324297316490e-02
0.113                 	-5.59488222241216e-02
0.1132                	-5.59736082443487e-02
0.1134                	-5.59914922702255e-02
0.1136                	-5.60042365823506e-02
0.1138                	-5.60240518042548e-02
0.114                 	-5.60392212598414e-02
0.1142                	-5.60667053627088e-02
0.1144                	-5.61043461819515e-02
0.1146                	-5.61348781047053e-02
0.1148                	-5.61333852935445e-02
0.115                 	-5.61338353163526e-02
0.1152                	-5.61592300761270e-02
0.1154                	-5.61958121521538e-02
0.1156                	-5.62086033292972e-02
0.1158                	-5.61866406837685e-02
0.116                 	-5.61511256548846e-02
0.1162                	-5.61536178106072e-02
0.1164                	-5.61808871515561e-02
0.1166                	-5.61901954198885e-02
0.1168                	-5.61659915646976e-02
0.117                 	-5.61485009449747e-02
0.1172                	-5.61534010632864e-02
0.1174                	-5.61675962398786e-02
0.1176                	-5.61706842943386e-02
0.1178                	-5.61688125402359e-02
0.118                 	-5.61729258978936e-02
0.1182                	-5.61763929760466e-02
0.1184                	-5.61867189099439e-02
0.1186                	-5.61908380680545e-02
0.1188                	-5.61904734298218e-02
0.119                 	-5.61923999457198e-02
0.1192                	-5.62137370379921e-02
0.1194                	-5.62299502193132e-02
0.1196                	-5.62443359573518e-02
0.1198                	-5.62636038299443e-02
0.12                  	-5.62786181927286e-02
0.1202                	-5.62869194498881e-02
0.1204                	-5.63053878036053e-02
0.1206                	-5.63366076818377e-02
0.1208                	-5.63649499718072e-02
0.121                 	-5.63956696877469e-02
0.1212                	-5.64297615099250e-02
0.1214                	-5.64566005514774e-02
0.1216                	-5.64844355661409e-02
0.1218                	-5.65160002698929e-02
0.122                 	-5.65517791793883e-02
0.1222                	-5.65907542232376e-02
0.1224                	-5.66380168339726e-02
0.1226                	-5.66826413067079e-02
0.1228                	-5.67061108778269e-02
0.123                 	-5.67138389535365e-02
0.1232                	-5.67237290501717e-02
0.1234                	-5.67509021347076e-02
0.1236                	-5.67878131024492e-02
0.1238                	-5.68161419497035e-02
0.124                 	-5.68255712028497e-02
0.1242                	-5.68142918905108e-02
0.1244                	-5.68079707498756e-02
0.1246                	-5.68222332836141e-02
0.1248                	-5.68412885138844e-02
0.125                 	-5.68452037642981e-02
0.1252                	-5.68425507070120e-02
0.1254                	-5.68293611350278e-02
0.1256                	-5.68154022376235e-02
0.1258                	-5.68055332610269e-02
0.126                 	-5.68068596388028e-02
0.1262                	-5.68165672382170e-02
0.1264                	-5.68170217274740e-02
0.1266                	-5.68047123146054e-02
0.1268                	-5.67902552371179e-02
0.127                 	-5.67693621071911e-02
0.1272                	-5.67595648810821e-02
0.1274                	-5.67614577355450e-02
0.1276                	-5.67585451490853e-02
0.1278                	-5.67487435569321e-02
0.128                 	-5.67254957662557e-02
0.1282                	-5.66951386581399e-02
0.1284                	-5.66711994324595e-02
0.1286                	-5.66739812411786e-02
0.1288                	-5.66757280854106e-02
0.129                 	-5.66662174064515e-02
0.1292                	-5.66346020706615e-02
0.1294                	-5.66121622450821e-02
0.1296                	-5.66143043469407e-02
0.1298                	-5.66324433473803e-02
0.13                  	-5.66454965656615e-02
0.1302                	-5.66511448175814e-02
0.1304                	-5.66598853083332e-02
0.1306                	-5.66794551301363e-02
0.1308                	-5.67081524045102e-02
0.131                 	-5.67288404326519e-02
0.1312                	-5.67290630170406e-02
0.1314                	-5.67088149674152e-02
0.1316                	-5.67044474737283e-02
0.1318                	-5.67215271178198e-02
0.132                 	-5.67423484226520e-02
0.1322                	-5.67260958597798e-02
0.1324                	-5.66898364228755e-02