TITLE = "CY1_Wall"
VARIABLES = "X", "Y", "Z"
ZONE T="CY1_Wall", I=129, J=31, F=POINT
 4.796276497180688E-03  1.099999100150335E-02 -1.099999100150335E-02
 4.473350362043485E-03  1.099999100150338E-02 -1.031249156390942E-02
 4.174625435907352E-03  1.099999100150336E-02 -9.624992126315438E-03
 3.899425905401345E-03  1.099999100150335E-02 -8.937492688721469E-03
 3.647128197682558E-03  1.099999100150322E-02 -8.249993251127413E-03
 3.417157962744314E-03  1.099999100150383E-02 -7.562493813533883E-03
 3.208987661769251E-03  1.099999100150367E-02 -6.874994375939794E-03
 3.022134756997844E-03  1.099999100150361E-02 -6.187494938345781E-03
 2.856160498248694E-03  1.099999100150346E-02 -5.499995500751733E-03
 2.710669293978341E-03  1.099999100150344E-02 -4.812496063157758E-03
 2.585308639173676E-03  1.099999100150347E-02 -4.124996625563802E-03
 2.479769548018871E-03  1.099999100150340E-02 -3.437497187969816E-03
 2.393787407398491E-03  1.099999100150340E-02 -2.749997750375852E-03
 2.327143131594394E-03  1.099999100150340E-02 -2.062498312781889E-03
 2.279664465419115E-03  1.099999100150336E-02 -1.374998875187922E-03
 2.251227260933866E-03  1.099999100150337E-02 -6.874994375939645E-04
 2.241756550387205E-03  1.099999100150335E-02  0.000000000000000E+00
 2.251227260933866E-03  1.099999100150337E-02  6.874994375939645E-04
 2.279664465419115E-03  1.099999100150336E-02  1.374998875187922E-03
 2.327143131594394E-03  1.099999100150340E-02  2.062498312781889E-03
 2.393787407398491E-03  1.099999100150340E-02  2.749997750375852E-03
 2.479769548018871E-03  1.099999100150340E-02  3.437497187969816E-03
 2.585308639173676E-03  1.099999100150347E-02  4.124996625563802E-03
 2.710669293978341E-03  1.099999100150344E-02  4.812496063157758E-03
 2.856160498248694E-03  1.099999100150346E-02  5.499995500751733E-03
 3.022134756997844E-03  1.099999100150361E-02  6.187494938345781E-03
 3.208987661769251E-03  1.099999100150367E-02  6.874994375939794E-03
 3.417157962744314E-03  1.099999100150383E-02  7.562493813533883E-03
 3.647128197682558E-03  1.099999100150322E-02  8.249993251127413E-03
 3.899425905401345E-03  1.099999100150335E-02  8.937492688721469E-03
 4.174625435907352E-03  1.099999100150336E-02  9.624992126315438E-03
 4.473350362043485E-03  1.099999100150338E-02  1.031249156390942E-02
 4.796276497180688E-03  1.099999100150335E-02  1.099999100150335E-02
 4.473350362043485E-03  1.031249156390942E-02  1.099999100150338E-02
 4.174625435907352E-03  9.624992126315438E-03  1.099999100150336E-02
 3.899425905401345E-03  8.937492688721469E-03  1.099999100150335E-02
 3.647128197682558E-03  8.249993251127413E-03  1.099999100150322E-02
 3.417157962744314E-03  7.562493813533883E-03  1.099999100150383E-02
 3.208987661769251E-03  6.874994375939794E-03  1.099999100150367E-02
 3.022134756997844E-03  6.187494938345781E-03  1.099999100150361E-02
 2.856160498248694E-03  5.499995500751733E-03  1.099999100150346E-02
 2.710669293978341E-03  4.812496063157758E-03  1.099999100150344E-02
 2.585308639173676E-03  4.124996625563802E-03  1.099999100150347E-02
 2.479769548018871E-03  3.437497187969816E-03  1.099999100150340E-02
 2.393787407398491E-03  2.749997750375852E-03  1.099999100150340E-02
 2.327143131594394E-03  2.062498312781889E-03  1.099999100150340E-02
 2.279664465419115E-03  1.374998875187922E-03  1.099999100150336E-02
 2.251227260933866E-03  6.874994375939645E-04  1.099999100150337E-02
 2.241756550387205E-03 -0.000000000000000E+00  1.099999100150335E-02
 2.251227260933866E-03 -6.874994375939645E-04  1.099999100150337E-02
 2.279664465419115E-03 -1.374998875187922E-03  1.099999100150336E-02
 2.327143131594394E-03 -2.062498312781889E-03  1.099999100150340E-02
 2.393787407398491E-03 -2.749997750375852E-03  1.099999100150340E-02
 2.479769548018871E-03 -3.437497187969816E-03  1.099999100150340E-02
 2.585308639173676E-03 -4.124996625563802E-03  1.099999100150347E-02
 2.710669293978341E-03 -4.812496063157758E-03  1.099999100150344E-02
 2.856160498248694E-03 -5.499995500751733E-03  1.099999100150346E-02
 3.022134756997844E-03 -6.187494938345781E-03  1.099999100150361E-02
 3.208987661769251E-03 -6.874994375939794E-03  1.099999100150367E-02
 3.417157962744314E-03 -7.562493813533883E-03  1.099999100150383E-02
 3.647128197682558E-03 -8.249993251127413E-03  1.099999100150322E-02
 3.899425905401345E-03 -8.937492688721469E-03  1.099999100150335E-02
 4.174625435907352E-03 -9.624992126315438E-03  1.099999100150336E-02
 4.473350362043485E-03 -1.031249156390942E-02  1.099999100150338E-02
 4.796276497180688E-03 -1.099999100150335E-02  1.099999100150335E-02
 4.473350362043485E-03 -1.099999100150338E-02  1.031249156390942E-02
 4.174625435907352E-03 -1.099999100150336E-02  9.624992126315438E-03
 3.899425905401345E-03 -1.099999100150335E-02  8.937492688721469E-03
 3.647128197682558E-03 -1.099999100150322E-02  8.249993251127413E-03
 3.417157962744314E-03 -1.099999100150383E-02  7.562493813533883E-03
 3.208987661769251E-03 -1.099999100150367E-02  6.874994375939794E-03
 3.022134756997844E-03 -1.099999100150361E-02  6.187494938345781E-03
 2.856160498248694E-03 -1.099999100150346E-02  5.499995500751733E-03
 2.710669293978341E-03 -1.099999100150344E-02  4.812496063157758E-03
 2.585308639173676E-03 -1.099999100150347E-02  4.124996625563802E-03
 2.479769548018871E-03 -1.099999100150340E-02  3.437497187969816E-03
 2.393787407398491E-03 -1.099999100150340E-02  2.749997750375852E-03
 2.327143131594394E-03 -1.099999100150340E-02  2.062498312781889E-03
 2.279664465419115E-03 -1.099999100150336E-02  1.374998875187922E-03
 2.251227260933866E-03 -1.099999100150337E-02  6.874994375939645E-04
 2.241756550387205E-03 -1.099999100150335E-02 -0.000000000000000E+00
 2.251227260933866E-03 -1.099999100150337E-02 -6.874994375939645E-04
 2.279664465419115E-03 -1.099999100150336E-02 -1.374998875187922E-03
 2.327143131594394E-03 -1.099999100150340E-02 -2.062498312781889E-03
 2.393787407398491E-03 -1.099999100150340E-02 -2.749997750375852E-03
 2.479769548018871E-03 -1.099999100150340E-02 -3.437497187969816E-03
 2.585308639173676E-03 -1.099999100150347E-02 -4.124996625563802E-03
 2.710669293978341E-03 -1.099999100150344E-02 -4.812496063157758E-03
 2.856160498248694E-03 -1.099999100150346E-02 -5.499995500751733E-03
 3.022134756997844E-03 -1.099999100150361E-02 -6.187494938345781E-03
 3.208987661769251E-03 -1.099999100150367E-02 -6.874994375939794E-03
 3.417157962744314E-03 -1.099999100150383E-02 -7.562493813533883E-03
 3.647128197682558E-03 -1.099999100150322E-02 -8.249993251127413E-03
 3.899425905401345E-03 -1.099999100150335E-02 -8.937492688721469E-03
 4.174625435907352E-03 -1.099999100150336E-02 -9.624992126315438E-03
 4.473350362043485E-03 -1.099999100150338E-02 -1.031249156390942E-02
 4.796276497180688E-03 -1.099999100150335E-02 -1.099999100150335E-02
 4.473350362043485E-03 -1.031249156390942E-02 -1.099999100150338E-02
 4.174625435907352E-03 -9.624992126315438E-03 -1.099999100150336E-02
 3.899425905401345E-03 -8.937492688721469E-03 -1.099999100150335E-02
 3.647128197682558E-03 -8.249993251127413E-03 -1.099999100150322E-02
 3.417157962744314E-03 -7.562493813533883E-03 -1.099999100150383E-02
 3.208987661769251E-03 -6.874994375939794E-03 -1.099999100150367E-02
 3.022134756997844E-03 -6.187494938345781E-03 -1.099999100150361E-02
 2.856160498248694E-03 -5.499995500751733E-03 -1.099999100150346E-02
 2.710669293978341E-03 -4.812496063157758E-03 -1.099999100150344E-02
 2.585308639173676E-03 -4.124996625563802E-03 -1.099999100150347E-02
 2.479769548018871E-03 -3.437497187969816E-03 -1.099999100150340E-02
 2.393787407398491E-03 -2.749997750375852E-03 -1.099999100150340E-02
 2.327143131594394E-03 -2.062498312781889E-03 -1.099999100150340E-02
 2.279664465419115E-03 -1.374998875187922E-03 -1.099999100150336E-02
 2.251227260933866E-03 -6.874994375939645E-04 -1.099999100150337E-02
 2.241756550387205E-03  0.000000000000000E+00 -1.099999100150335E-02
 2.251227260933866E-03  6.874994375939645E-04 -1.099999100150337E-02
 2.279664465419115E-03  1.374998875187922E-03 -1.099999100150336E-02
 2.327143131594394E-03  2.062498312781889E-03 -1.099999100150340E-02
 2.393787407398491E-03  2.749997750375852E-03 -1.099999100150340E-02
 2.479769548018871E-03  3.437497187969816E-03 -1.099999100150340E-02
 2.585308639173676E-03  4.124996625563802E-03 -1.099999100150347E-02
 2.710669293978341E-03  4.812496063157758E-03 -1.099999100150344E-02
 2.856160498248694E-03  5.499995500751733E-03 -1.099999100150346E-02
 3.022134756997844E-03  6.187494938345781E-03 -1.099999100150361E-02
 3.208987661769251E-03  6.874994375939794E-03 -1.099999100150367E-02
 3.417157962744314E-03  7.562493813533883E-03 -1.099999100150383E-02
 3.647128197682558E-03  8.249993251127413E-03 -1.099999100150322E-02
 3.899425905401345E-03  8.937492688721469E-03 -1.099999100150335E-02
 4.174625435907352E-03  9.624992126315438E-03 -1.099999100150336E-02
 4.473350362043485E-03  1.031249156390942E-02 -1.099999100150338E-02
 4.796276497180688E-03  1.099999100150335E-02 -1.099999100150335E-02
 5.243516960212023E-03  1.144593363469826E-02 -1.144593363469826E-02
 4.918602778807615E-03  1.148143771497796E-02 -1.075559658312458E-02
 4.617113882179215E-03  1.151661021845914E-02 -1.006274895576710E-02
 4.338491268068585E-03  1.155141635872849E-02 -9.367097582363629E-03
 4.082234138438954E-03  1.158577397520712E-02 -8.668347869930730E-03
 3.847896556226181E-03  1.161954481393789E-02 -7.966214049775523E-03
 3.635084367622977E-03  1.165252663630539E-02 -7.260432861236895E-03
 3.443452301346532E-03  1.168444731192251E-02 -6.550780900575449E-03
 3.272701157080053E-03  1.171496237716743E-02 -5.837095447773063E-03
 3.122575002485959E-03  1.174365776493215E-02 -5.119297944106370E-03
 2.992858315685457E-03  1.177005940204375E-02 -4.397418444047020E-03
 2.883373041264278E-03  1.179365097685640E-02 -3.671618405684589E-03
 2.793975573818228E-03  1.181390027921421E-02 -2.942208325371502E-03
 2.724553740890990E-03  1.183029309554736E-02 -2.209656278845451E-03
 2.675023918479228E-03  1.184237188089228E-02 -1.474583748589842E-03
 2.645328463472948E-03  1.184977473010155E-02 -7.377464324305926E-04
 2.635433672559177E-03  1.185226909154385E-02  0.000000000000000E+00
 2.645328463472948E-03  1.184977473010155E-02  7.377464324305926E-04
 2.675023918479228E-03  1.184237188089228E-02  1.474583748589842E-03
 2.724553740890990E-03  1.183029309554736E-02  2.209656278845451E-03
 2.793975573818228E-03  1.181390027921421E-02  2.942208325371502E-03
 2.883373041264278E-03  1.179365097685640E-02  3.671618405684589E-03
 2.992858315685457E-03  1.177005940204375E-02  4.397418444047020E-03
 3.122575002485959E-03  1.174365776493215E-02  5.119297944106370E-03
 3.272701157080053E-03  1.171496237716743E-02  5.837095447773063E-03
 3.443452301346532E-03  1.168444731192251E-02  6.550780900575449E-03
 3.635084367622977E-03  1.165252663630539E-02  7.260432861236895E-03
 3.847896556226181E-03  1.161954481393789E-02  7.966214049775523E-03
 4.082234138438954E-03  1.158577397520712E-02  8.668347869930730E-03
 4.338491268068585E-03  1.155141635872849E-02  9.367097582363629E-03
 4.617113882179215E-03  1.151661021845914E-02  1.006274895576710E-02
 4.918602778807615E-03  1.148143771497796E-02  1.075559658312458E-02
 5.243516960212023E-03  1.144593363469826E-02  1.144593363469826E-02
 4.918602778807615E-03  1.075559658312458E-02  1.148143771497796E-02
 4.617113882179215E-03  1.006274895576710E-02  1.151661021845914E-02
 4.338491268068585E-03  9.367097582363629E-03  1.155141635872849E-02
 4.082234138438954E-03  8.668347869930730E-03  1.158577397520712E-02
 3.847896556226181E-03  7.966214049775523E-03  1.161954481393789E-02
 3.635084367622977E-03  7.260432861236895E-03  1.165252663630539E-02
 3.443452301346532E-03  6.550780900575449E-03  1.168444731192251E-02
 3.272701157080053E-03  5.837095447773063E-03  1.171496237716743E-02
 3.122575002485959E-03  5.119297944106370E-03  1.174365776493215E-02
 2.992858315685457E-03  4.397418444047020E-03  1.177005940204375E-02
 2.883373041264278E-03  3.671618405684589E-03  1.179365097685640E-02
 2.793975573818228E-03  2.942208325371502E-03  1.181390027921421E-02
 2.724553740890990E-03  2.209656278845451E-03  1.183029309554736E-02
 2.675023918479228E-03  1.474583748589842E-03  1.184237188089228E-02
 2.645328463472948E-03  7.377464324305926E-04  1.184977473010155E-02
 2.635433672559177E-03 -0.000000000000000E+00  1.185226909154385E-02
 2.645328463472948E-03 -7.377464324305926E-04  1.184977473010155E-02
 2.675023918479228E-03 -1.474583748589842E-03  1.184237188089228E-02
 2.724553740890990E-03 -2.209656278845451E-03  1.183029309554736E-02
 2.793975573818228E-03 -2.942208325371502E-03  1.181390027921421E-02
 2.883373041264278E-03 -3.671618405684589E-03  1.179365097685640E-02
 2.992858315685457E-03 -4.397418444047020E-03  1.177005940204375E-02
 3.122575002485959E-03 -5.119297944106370E-03  1.174365776493215E-02
 3.272701157080053E-03 -5.837095447773063E-03  1.171496237716743E-02
 3.443452301346532E-03 -6.550780900575449E-03  1.168444731192251E-02
 3.635084367622977E-03 -7.260432861236895E-03  1.165252663630539E-02
 3.847896556226181E-03 -7.966214049775523E-03  1.161954481393789E-02
 4.082234138438954E-03 -8.668347869930730E-03  1.158577397520712E-02
 4.338491268068585E-03 -9.367097582363629E-03  1.155141635872849E-02
 4.617113882179215E-03 -1.006274895576710E-02  1.151661021845914E-02
 4.918602778807615E-03 -1.075559658312458E-02  1.148143771497796E-02
 5.243516960212023E-03 -1.144593363469826E-02  1.144593363469826E-02
 4.918602778807615E-03 -1.148143771497796E-02  1.075559658312458E-02
 4.617113882179215E-03 -1.151661021845914E-02  1.006274895576710E-02
 4.338491268068585E-03 -1.155141635872849E-02  9.367097582363629E-03
 4.082234138438954E-03 -1.158577397520712E-02  8.668347869930730E-03
 3.847896556226181E-03 -1.161954481393789E-02  7.966214049775523E-03
 3.635084367622977E-03 -1.165252663630539E-02  7.260432861236895E-03
 3.443452301346532E-03 -1.168444731192251E-02  6.550780900575449E-03
 3.272701157080053E-03 -1.171496237716743E-02  5.837095447773063E-03
 3.122575002485959E-03 -1.174365776493215E-02  5.119297944106370E-03
 2.992858315685457E-03 -1.177005940204375E-02  4.397418444047020E-03
 2.883373041264278E-03 -1.179365097685640E-02  3.671618405684589E-03
 2.793975573818228E-03 -1.181390027921421E-02  2.942208325371502E-03
 2.724553740890990E-03 -1.183029309554736E-02  2.209656278845451E-03
 2.675023918479228E-03 -1.184237188089228E-02  1.474583748589842E-03
 2.645328463472948E-03 -1.184977473010155E-02  7.377464324305926E-04
 2.635433672559177E-03 -1.185226909154385E-02 -0.000000000000000E+00
 2.645328463472948E-03 -1.184977473010155E-02 -7.377464324305926E-04
 2.675023918479228E-03 -1.184237188089228E-02 -1.474583748589842E-03
 2.724553740890990E-03 -1.183029309554736E-02 -2.209656278845451E-03
 2.793975573818228E-03 -1.181390027921421E-02 -2.942208325371502E-03
 2.883373041264278E-03 -1.179365097685640E-02 -3.671618405684589E-03
 2.992858315685457E-03 -1.177005940204375E-02 -4.397418444047020E-03
 3.122575002485959E-03 -1.174365776493215E-02 -5.119297944106370E-03
 3.272701157080053E-03 -1.171496237716743E-02 -5.837095447773063E-03
 3.443452301346532E-03 -1.168444731192251E-02 -6.550780900575449E-03
 3.635084367622977E-03 -1.165252663630539E-02 -7.260432861236895E-03
 3.847896556226181E-03 -1.161954481393789E-02 -7.966214049775523E-03
 4.082234138438954E-03 -1.158577397520712E-02 -8.668347869930730E-03
 4.338491268068585E-03 -1.155141635872849E-02 -9.367097582363629E-03
 4.617113882179215E-03 -1.151661021845914E-02 -1.006274895576710E-02
 4.918602778807615E-03 -1.148143771497796E-02 -1.075559658312458E-02
 5.243516960212023E-03 -1.144593363469826E-02 -1.144593363469826E-02
 4.918602778807615E-03 -1.075559658312458E-02 -1.148143771497796E-02
 4.617113882179215E-03 -1.006274895576710E-02 -1.151661021845914E-02
 4.338491268068585E-03 -9.367097582363629E-03 -1.155141635872849E-02
 4.082234138438954E-03 -8.668347869930730E-03 -1.158577397520712E-02
 3.847896556226181E-03 -7.966214049775523E-03 -1.161954481393789E-02
 3.635084367622977E-03 -7.260432861236895E-03 -1.165252663630539E-02
 3.443452301346532E-03 -6.550780900575449E-03 -1.168444731192251E-02
 3.272701157080053E-03 -5.837095447773063E-03 -1.171496237716743E-02
 3.122575002485959E-03 -5.119297944106370E-03 -1.174365776493215E-02
 2.992858315685457E-03 -4.397418444047020E-03 -1.177005940204375E-02
 2.883373041264278E-03 -3.671618405684589E-03 -1.179365097685640E-02
 2.793975573818228E-03 -2.942208325371502E-03 -1.181390027921421E-02
 2.724553740890990E-03 -2.209656278845451E-03 -1.183029309554736E-02
 2.675023918479228E-03 -1.474583748589842E-03 -1.184237188089228E-02
 2.645328463472948E-03 -7.377464324305926E-04 -1.184977473010155E-02
 2.635433672559177E-03  0.000000000000000E+00 -1.185226909154385E-02
 2.645328463472948E-03  7.377464324305926E-04 -1.184977473010155E-02
 2.675023918479228E-03  1.474583748589842E-03 -1.184237188089228E-02
 2.724553740890990E-03  2.209656278845451E-03 -1.183029309554736E-02
 2.793975573818228E-03  2.942208325371502E-03 -1.181390027921421E-02
 2.883373041264278E-03  3.671618405684589E-03 -1.179365097685640E-02
 2.992858315685457E-03  4.397418444047020E-03 -1.177005940204375E-02
 3.122575002485959E-03  5.119297944106370E-03 -1.174365776493215E-02
 3.272701157080053E-03  5.837095447773063E-03 -1.171496237716743E-02
 3.443452301346532E-03  6.550780900575449E-03 -1.168444731192251E-02
 3.635084367622977E-03  7.260432861236895E-03 -1.165252663630539E-02
 3.847896556226181E-03  7.966214049775523E-03 -1.161954481393789E-02
 4.082234138438954E-03  8.668347869930730E-03 -1.158577397520712E-02
 4.338491268068585E-03  9.367097582363629E-03 -1.155141635872849E-02
 4.617113882179215E-03  1.006274895576710E-02 -1.151661021845914E-02
 4.918602778807615E-03  1.075559658312458E-02 -1.148143771497796E-02
 5.243516960212023E-03  1.144593363469826E-02 -1.144593363469826E-02
 5.708558782818789E-03  1.188507060231564E-02 -1.188507060231564E-02
 5.382910039648935E-03  1.195613473883732E-02 -1.119133031519316E-02
 5.079903239520065E-03  1.202645697441863E-02 -1.049265027125211E-02
 4.799085843407677E-03  1.209596360473208E-02 -9.788462666528863E-03
 4.540069073799293E-03  1.216448927956542E-02 -9.078195970037331E-03
 4.302524351162880E-03  1.223176004985447E-02 -8.361294960114184E-03
 4.086179671563829E-03  1.229737797597775E-02 -7.637247517366299E-03
 3.890815754942868E-03  1.236080955065064E-02 -6.905618628672565E-03
 3.716261795061232E-03  1.242138083107337E-02 -6.166091241940151E-03
 3.562390662914904E-03  1.247828262033483E-02 -5.418512355359663E-03
 3.429113464445701E-03  1.253058902856097E-02 -4.662941056321722E-03
 3.316373437705139E-03  1.257729198153446E-02 -3.899693338595035E-03
 3.224139295388678E-03  1.261735248881310E-02 -3.129376836116010E-03
 3.152398266626463E-03  1.264976670756081E-02 -2.352907735603497E-03
 3.101149244476540E-03  1.267364138882552E-02 -1.571502749018803E-03
 3.070396567814692E-03  1.268826995918738E-02 -7.866416074230996E-04
 3.060145018685052E-03  1.269319836951706E-02  0.000000000000000E+00
 3.070396567814692E-03  1.268826995918738E-02  7.866416074230996E-04
 3.101149244476540E-03  1.267364138882552E-02  1.571502749018803E-03
 3.152398266626463E-03  1.264976670756081E-02  2.352907735603497E-03
 3.224139295388678E-03  1.261735248881310E-02  3.129376836116010E-03
 3.316373437705139E-03  1.257729198153446E-02  3.899693338595035E-03
 3.429113464445701E-03  1.253058902856097E-02  4.662941056321722E-03
 3.562390662914904E-03  1.247828262033483E-02  5.418512355359663E-03
 3.716261795061232E-03  1.242138083107337E-02  6.166091241940151E-03
 3.890815754942868E-03  1.236080955065064E-02  6.905618628672565E-03
 4.086179671563829E-03  1.229737797597775E-02  7.637247517366299E-03
 4.302524351162880E-03  1.223176004985447E-02  8.361294960114184E-03
 4.540069073799293E-03  1.216448927956542E-02  9.078195970037331E-03
 4.799085843407677E-03  1.209596360473208E-02  9.788462666528863E-03
 5.079903239520065E-03  1.202645697441863E-02  1.049265027125211E-02
 5.382910039648935E-03  1.195613473883732E-02  1.119133031519316E-02
 5.708558782818789E-03  1.188507060231564E-02  1.188507060231564E-02
 5.382910039648935E-03  1.119133031519316E-02  1.195613473883732E-02
 5.079903239520065E-03  1.049265027125211E-02  1.202645697441863E-02
 4.799085843407677E-03  9.788462666528863E-03  1.209596360473208E-02
 4.540069073799293E-03  9.078195970037331E-03  1.216448927956542E-02
 4.302524351162880E-03  8.361294960114184E-03  1.223176004985447E-02
 4.086179671563829E-03  7.637247517366299E-03  1.229737797597775E-02
 3.890815754942868E-03  6.905618628672565E-03  1.236080955065064E-02
 3.716261795061232E-03  6.166091241940151E-03  1.242138083107337E-02
 3.562390662914904E-03  5.418512355359663E-03  1.247828262033483E-02
 3.429113464445701E-03  4.662941056321722E-03  1.253058902856097E-02
 3.316373437705139E-03  3.899693338595035E-03  1.257729198153446E-02
 3.224139295388678E-03  3.129376836116010E-03  1.261735248881310E-02
 3.152398266626463E-03  2.352907735603497E-03  1.264976670756081E-02
 3.101149244476540E-03  1.571502749018803E-03  1.267364138882552E-02
 3.070396567814692E-03  7.866416074230996E-04  1.268826995918738E-02
 3.060145018685052E-03 -0.000000000000000E+00  1.269319836951706E-02
 3.070396567814692E-03 -7.866416074230996E-04  1.268826995918738E-02
 3.101149244476540E-03 -1.571502749018803E-03  1.267364138882552E-02
 3.152398266626463E-03 -2.352907735603497E-03  1.264976670756081E-02
 3.224139295388678E-03 -3.129376836116010E-03  1.261735248881310E-02
 3.316373437705139E-03 -3.899693338595035E-03  1.257729198153446E-02
 3.429113464445701E-03 -4.662941056321722E-03  1.253058902856097E-02
 3.562390662914904E-03 -5.418512355359663E-03  1.247828262033483E-02
 3.716261795061232E-03 -6.166091241940151E-03  1.242138083107337E-02
 3.890815754942868E-03 -6.905618628672565E-03  1.236080955065064E-02
 4.086179671563829E-03 -7.637247517366299E-03  1.229737797597775E-02
 4.302524351162880E-03 -8.361294960114184E-03  1.223176004985447E-02
 4.540069073799293E-03 -9.078195970037331E-03  1.216448927956542E-02
 4.799085843407677E-03 -9.788462666528863E-03  1.209596360473208E-02
 5.079903239520065E-03 -1.049265027125211E-02  1.202645697441863E-02
 5.382910039648935E-03 -1.119133031519316E-02  1.195613473883732E-02
 5.708558782818789E-03 -1.188507060231564E-02  1.188507060231564E-02
 5.382910039648935E-03 -1.195613473883732E-02  1.119133031519316E-02
 5.079903239520065E-03 -1.202645697441863E-02  1.049265027125211E-02
 4.799085843407677E-03 -1.209596360473208E-02  9.788462666528863E-03
 4.540069073799293E-03 -1.216448927956542E-02  9.078195970037331E-03
 4.302524351162880E-03 -1.223176004985447E-02  8.361294960114184E-03
 4.086179671563829E-03 -1.229737797597775E-02  7.637247517366299E-03
 3.890815754942868E-03 -1.236080955065064E-02  6.905618628672565E-03
 3.716261795061232E-03 -1.242138083107337E-02  6.166091241940151E-03
 3.562390662914904E-03 -1.247828262033483E-02  5.418512355359663E-03
 3.429113464445701E-03 -1.253058902856097E-02  4.662941056321722E-03
 3.316373437705139E-03 -1.257729198153446E-02  3.899693338595035E-03
 3.224139295388678E-03 -1.261735248881310E-02  3.129376836116010E-03
 3.152398266626463E-03 -1.264976670756081E-02  2.352907735603497E-03
 3.101149244476540E-03 -1.267364138882552E-02  1.571502749018803E-03
 3.070396567814692E-03 -1.268826995918738E-02  7.866416074230996E-04
 3.060145018685052E-03 -1.269319836951706E-02 -0.000000000000000E+00
 3.070396567814692E-03 -1.268826995918738E-02 -7.866416074230996E-04
 3.101149244476540E-03 -1.267364138882552E-02 -1.571502749018803E-03
 3.152398266626463E-03 -1.264976670756081E-02 -2.352907735603497E-03
 3.224139295388678E-03 -1.261735248881310E-02 -3.129376836116010E-03
 3.316373437705139E-03 -1.257729198153446E-02 -3.899693338595035E-03
 3.429113464445701E-03 -1.253058902856097E-02 -4.662941056321722E-03
 3.562390662914904E-03 -1.247828262033483E-02 -5.418512355359663E-03
 3.716261795061232E-03 -1.242138083107337E-02 -6.166091241940151E-03
 3.890815754942868E-03 -1.236080955065064E-02 -6.905618628672565E-03
 4.086179671563829E-03 -1.229737797597775E-02 -7.637247517366299E-03
 4.302524351162880E-03 -1.223176004985447E-02 -8.361294960114184E-03
 4.540069073799293E-03 -1.216448927956542E-02 -9.078195970037331E-03
 4.799085843407677E-03 -1.209596360473208E-02 -9.788462666528863E-03
 5.079903239520065E-03 -1.202645697441863E-02 -1.049265027125211E-02
 5.382910039648935E-03 -1.195613473883732E-02 -1.119133031519316E-02
 5.708558782818789E-03 -1.188507060231564E-02 -1.188507060231564E-02
 5.382910039648935E-03 -1.119133031519316E-02 -1.195613473883732E-02
 5.079903239520065E-03 -1.049265027125211E-02 -1.202645697441863E-02
 4.799085843407677E-03 -9.788462666528863E-03 -1.209596360473208E-02
 4.540069073799293E-03 -9.078195970037331E-03 -1.216448927956542E-02
 4.302524351162880E-03 -8.361294960114184E-03 -1.223176004985447E-02
 4.086179671563829E-03 -7.637247517366299E-03 -1.229737797597775E-02
 3.890815754942868E-03 -6.905618628672565E-03 -1.236080955065064E-02
 3.716261795061232E-03 -6.166091241940151E-03 -1.242138083107337E-02
 3.562390662914904E-03 -5.418512355359663E-03 -1.247828262033483E-02
 3.429113464445701E-03 -4.662941056321722E-03 -1.253058902856097E-02
 3.316373437705139E-03 -3.899693338595035E-03 -1.257729198153446E-02
 3.224139295388678E-03 -3.129376836116010E-03 -1.261735248881310E-02
 3.152398266626463E-03 -2.352907735603497E-03 -1.264976670756081E-02
 3.101149244476540E-03 -1.571502749018803E-03 -1.267364138882552E-02
 3.070396567814692E-03 -7.866416074230996E-04 -1.268826995918738E-02
 3.060145018685052E-03  0.000000000000000E+00 -1.269319836951706E-02
 3.070396567814692E-03  7.866416074230996E-04 -1.268826995918738E-02
 3.101149244476540E-03  1.571502749018803E-03 -1.267364138882552E-02
 3.152398266626463E-03  2.352907735603497E-03 -1.264976670756081E-02
 3.224139295388678E-03  3.129376836116010E-03 -1.261735248881310E-02
 3.316373437705139E-03  3.899693338595035E-03 -1.257729198153446E-02
 3.429113464445701E-03  4.662941056321722E-03 -1.253058902856097E-02
 3.562390662914904E-03  5.418512355359663E-03 -1.247828262033483E-02
 3.716261795061232E-03  6.166091241940151E-03 -1.242138083107337E-02
 3.890815754942868E-03  6.905618628672565E-03 -1.236080955065064E-02
 4.086179671563829E-03  7.637247517366299E-03 -1.229737797597775E-02
 4.302524351162880E-03  8.361294960114184E-03 -1.223176004985447E-02
 4.540069073799293E-03  9.078195970037331E-03 -1.216448927956542E-02
 4.799085843407677E-03  9.788462666528863E-03 -1.209596360473208E-02
 5.079903239520065E-03  1.049265027125211E-02 -1.202645697441863E-02
 5.382910039648935E-03  1.119133031519316E-02 -1.195613473883732E-02
 5.708558782818789E-03  1.188507060231564E-02 -1.188507060231564E-02
 6.190929187676132E-03  1.231720914746345E-02 -1.231720914746344E-02
 5.865768397036634E-03  1.242385566604163E-02 -1.161946408619785E-02
 5.562461519630370E-03  1.252926714200352E-02 -1.091442907095124E-02
 5.280652506000804E-03  1.263332655078899E-02 -1.020128192647501E-02
 5.020054113254434E-03  1.273578411434188E-02 -9.479193871652887E-03
 4.780444211839749E-03  1.283623267809330E-02 -8.747358839751180E-03
 4.561661729873144E-03  1.293408530407807E-02 -8.005032726412460E-03
 4.363601986002494E-03  1.302855836266846E-02 -7.251583237529708E-03
 4.186211163701426E-03  1.311866434831835E-02 -6.486549814571569E-03
 4.029479713225556E-03  1.320321930354043E-02 -5.709711272182915E-03
 3.893434546031666E-03  1.328086973088930E-02 -4.921156333432949E-03
 3.778130020908529E-03  1.335014276715234E-02 -4.121349477231178E-03
 3.683637912577419E-03  1.340952083455089E-02 -3.311182028244314E-03
 3.610036786956655E-03  1.345753792846701E-02 -2.491997129446739E-03
 3.557401446545592E-03  1.349288965518264E-02 -1.665578141608452E-03
 3.525793299383921E-03  1.351454425102283E-02 -8.340937990200554E-04
 3.515252583679589E-03  1.352183870276209E-02  0.000000000000000E+00
 3.525793299383921E-03  1.351454425102283E-02  8.340937990200554E-04
 3.557401446545592E-03  1.349288965518264E-02  1.665578141608452E-03
 3.610036786956655E-03  1.345753792846701E-02  2.491997129446739E-03
 3.683637912577419E-03  1.340952083455089E-02  3.311182028244314E-03
 3.778130020908529E-03  1.335014276715234E-02  4.121349477231178E-03
 3.893434546031666E-03  1.328086973088930E-02  4.921156333432949E-03
 4.029479713225556E-03  1.320321930354043E-02  5.709711272182915E-03
 4.186211163701426E-03  1.311866434831835E-02  6.486549814571569E-03
 4.363601986002494E-03  1.302855836266846E-02  7.251583237529708E-03
 4.561661729873144E-03  1.293408530407807E-02  8.005032726412460E-03
 4.780444211839749E-03  1.283623267809330E-02  8.747358839751180E-03
 5.020054113254434E-03  1.273578411434188E-02  9.479193871652887E-03
 5.280652506000804E-03  1.263332655078899E-02  1.020128192647501E-02
 5.562461519630370E-03  1.252926714200352E-02  1.091442907095124E-02
 5.865768397036634E-03  1.242385566604163E-02  1.161946408619785E-02
 6.190929187676132E-03  1.231720914746344E-02  1.231720914746345E-02
 5.865768397036634E-03  1.161946408619785E-02  1.242385566604163E-02
 5.562461519630370E-03  1.091442907095124E-02  1.252926714200352E-02
 5.280652506000804E-03  1.020128192647501E-02  1.263332655078899E-02
 5.020054113254434E-03  9.479193871652887E-03  1.273578411434188E-02
 4.780444211839749E-03  8.747358839751180E-03  1.283623267809330E-02
 4.561661729873144E-03  8.005032726412460E-03  1.293408530407807E-02
 4.363601986002494E-03  7.251583237529708E-03  1.302855836266846E-02
 4.186211163701426E-03  6.486549814571569E-03  1.311866434831835E-02
 4.029479713225556E-03  5.709711272182915E-03  1.320321930354043E-02
 3.893434546031666E-03  4.921156333432949E-03  1.328086973088930E-02
 3.778130020908529E-03  4.121349477231178E-03  1.335014276715234E-02
 3.683637912577419E-03  3.311182028244314E-03  1.340952083455089E-02
 3.610036786956655E-03  2.491997129446739E-03  1.345753792846701E-02