TITLE = "CY2_Wall"
VARIABLES = "X", "Y", "Z"
ZONE T="CY2_Wall", I=129, J=91, F=POINT
 2.407018563736220E-02  2.122457115424805E-02 -2.122457115424805E-02
 2.407018563736220E-02  2.224044557390208E-02 -2.015756488363057E-02
 2.407018563736220E-02  2.320274081213562E-02 -1.904199727361427E-02
 2.407018563736220E-02  2.410913861543265E-02 -1.788055582428385E-02
 2.407018563736220E-02  2.495745539209397E-02 -1.667603854982101E-02
 2.407018563736220E-02  2.574564747270083E-02 -1.543134723784319E-02
 2.407018563736220E-02  2.647181603349356E-02 -1.414948045874302E-02
 2.407018563736220E-02  2.713421167080436E-02 -1.283352634186962E-02
 2.407018563736220E-02  2.773123861552395E-02 -1.148665513595451E-02
 2.407018563736220E-02  2.826145857744912E-02 -1.011211157170473E-02
 2.407018563736220E-02  2.872359421024980E-02 -8.713207044962337E-03
 2.407018563736220E-02  2.911653218870827E-02 -7.293311639261834E-03
 2.407018563736220E-02  2.943932589081713E-02 -5.855846007003694E-03
 2.407018563736220E-02  2.969119767827461E-02 -4.404273128803151E-03
 2.407018563736220E-02  2.987154076988336E-02 -2.942089970866558E-03
 2.407018563736220E-02  2.997992070333949E-02 -1.472819060493502E-03
 2.407018563736220E-02  3.001607638189037E-02  0.000000000000000E+00
 2.407018563736220E-02  2.997992070333949E-02  1.472819060493502E-03
 2.407018563736220E-02  2.987154076988336E-02  2.942089970866558E-03
 2.407018563736220E-02  2.969119767827461E-02  4.404273128803151E-03
 2.407018563736220E-02  2.943932589081713E-02  5.855846007003694E-03
 2.407018563736220E-02  2.911653218870827E-02  7.293311639261834E-03
 2.407018563736220E-02  2.872359421024980E-02  8.713207044962335E-03
 2.407018563736220E-02  2.826145857744912E-02  1.011211157170473E-02
 2.407018563736220E-02  2.773123861552395E-02  1.148665513595451E-02
 2.407018563736220E-02  2.713421167080436E-02  1.283352634186962E-02
 2.407018563736220E-02  2.647181603349355E-02  1.414948045874302E-02
 2.407018563736220E-02  2.574564747270083E-02  1.543134723784319E-02
 2.407018563736220E-02  2.495745539209397E-02  1.667603854982101E-02
 2.407018563736220E-02  2.410913861543265E-02  1.788055582428385E-02
 2.407018563736220E-02  2.320274081213562E-02  1.904199727361426E-02
 2.407018563736220E-02  2.224044557390208E-02  2.015756488363057E-02
 2.407018563736220E-02  2.122457115424805E-02  2.122457115424805E-02
 2.407018563736220E-02  2.015756488363057E-02  2.224044557390208E-02
 2.407018563736220E-02  1.904199727361427E-02  2.320274081213562E-02
 2.407018563736220E-02  1.788055582428385E-02  2.410913861543265E-02
 2.407018563736220E-02  1.667603854982102E-02  2.495745539209397E-02
 2.407018563736220E-02  1.543134723784319E-02  2.574564747270083E-02
 2.407018563736220E-02  1.414948045874303E-02  2.647181603349355E-02
 2.407018563736220E-02  1.283352634186962E-02  2.713421167080436E-02
 2.407018563736220E-02  1.148665513595452E-02  2.773123861552395E-02
 2.407018563736220E-02  1.011211157170473E-02  2.826145857744912E-02
 2.407018563736220E-02  8.713207044962337E-03  2.872359421024980E-02
 2.407018563736220E-02  7.293311639261836E-03  2.911653218870827E-02
 2.407018563736220E-02  5.855846007003703E-03  2.943932589081713E-02
 2.407018563736220E-02  4.404273128803152E-03  2.969119767827461E-02
 2.407018563736220E-02  2.942089970866564E-03  2.987154076988335E-02
 2.407018563736220E-02  1.472819060493497E-03  2.997992070333949E-02
 2.407018563736220E-02  1.837954593202225E-18  3.001607638189037E-02
 2.407018563736220E-02 -1.472819060493494E-03  2.997992070333949E-02
 2.407018563736220E-02 -2.942089970866560E-03  2.987154076988336E-02
 2.407018563736220E-02 -4.404273128803149E-03  2.969119767827461E-02
 2.407018563736220E-02 -5.855846007003699E-03  2.943932589081713E-02
 2.407018563736220E-02 -7.293311639261832E-03  2.911653218870827E-02
 2.407018563736220E-02 -8.713207044962331E-03  2.872359421024980E-02
 2.407018563736220E-02 -1.011211157170473E-02  2.826145857744912E-02
 2.407018563736220E-02 -1.148665513595451E-02  2.773123861552395E-02
 2.407018563736220E-02 -1.283352634186962E-02  2.713421167080437E-02
 2.407018563736220E-02 -1.414948045874302E-02  2.647181603349356E-02
 2.407018563736220E-02 -1.543134723784319E-02  2.574564747270083E-02
 2.407018563736220E-02 -1.667603854982101E-02  2.495745539209398E-02
 2.407018563736220E-02 -1.788055582428385E-02  2.410913861543265E-02
 2.407018563736220E-02 -1.904199727361426E-02  2.320274081213562E-02
 2.407018563736220E-02 -2.015756488363057E-02  2.224044557390208E-02
 2.407018563736220E-02 -2.122457115424805E-02  2.122457115424805E-02
 2.407018563736220E-02 -2.224044557390207E-02  2.015756488363058E-02
 2.407018563736220E-02 -2.320274081213562E-02  1.904199727361427E-02
 2.407018563736220E-02 -2.410913861543265E-02  1.788055582428385E-02
 2.407018563736220E-02 -2.495745539209398E-02  1.667603854982101E-02
 2.407018563736220E-02 -2.574564747270082E-02  1.543134723784319E-02
 2.407018563736220E-02 -2.647181603349355E-02  1.414948045874303E-02
 2.407018563736220E-02 -2.713421167080436E-02  1.283352634186962E-02
 2.407018563736220E-02 -2.773123861552395E-02  1.148665513595452E-02
 2.407018563736220E-02 -2.826145857744912E-02  1.011211157170474E-02
 2.407018563736220E-02 -2.872359421024980E-02  8.713207044962338E-03
 2.407018563736220E-02 -2.911653218870827E-02  7.293311639261838E-03
 2.407018563736220E-02 -2.943932589081713E-02  5.855846007003705E-03
 2.407018563736220E-02 -2.969119767827461E-02  4.404273128803154E-03
 2.407018563736220E-02 -2.987154076988335E-02  2.942089970866565E-03
 2.407018563736220E-02 -2.997992070333949E-02  1.472819060493499E-03
 2.407018563736220E-02 -3.001607638189037E-02  3.675909186404451E-18
 2.407018563736220E-02 -2.997992070333949E-02 -1.472819060493492E-03
 2.407018563736220E-02 -2.987154076988336E-02 -2.942089970866544E-03
 2.407018563736220E-02 -2.969119767827461E-02 -4.404273128803160E-03
 2.407018563736220E-02 -2.943932589081713E-02 -5.855846007003698E-03
 2.407018563736220E-02 -2.911653218870827E-02 -7.293311639261831E-03
 2.407018563736220E-02 -2.872359421024980E-02 -8.713207044962330E-03
 2.407018563736220E-02 -2.826145857744912E-02 -1.011211157170471E-02
 2.407018563736220E-02 -2.773123861552396E-02 -1.148665513595450E-02
 2.407018563736220E-02 -2.713421167080436E-02 -1.283352634186962E-02
 2.407018563736220E-02 -2.647181603349356E-02 -1.414948045874302E-02
 2.407018563736220E-02 -2.574564747270083E-02 -1.543134723784319E-02
 2.407018563736220E-02 -2.495745539209398E-02 -1.667603854982101E-02
 2.407018563736220E-02 -2.410913861543267E-02 -1.788055582428384E-02
 2.407018563736220E-02 -2.320274081213562E-02 -1.904199727361427E-02
 2.407018563736220E-02 -2.224044557390208E-02 -2.015756488363057E-02
 2.407018563736220E-02 -2.122457115424806E-02 -2.122457115424805E-02
 2.407018563736220E-02 -2.015756488363058E-02 -2.224044557390207E-02
 2.407018563736220E-02 -1.904199727361428E-02 -2.320274081213561E-02
 2.407018563736220E-02 -1.788055582428385E-02 -2.410913861543266E-02
 2.407018563736220E-02 -1.667603854982101E-02 -2.495745539209397E-02
 2.407018563736220E-02 -1.543134723784319E-02 -2.574564747270082E-02
 2.407018563736220E-02 -1.414948045874303E-02 -2.647181603349355E-02
 2.407018563736220E-02 -1.283352634186963E-02 -2.713421167080435E-02
 2.407018563736220E-02 -1.148665513595450E-02 -2.773123861552396E-02
 2.407018563736220E-02 -1.011211157170472E-02 -2.826145857744912E-02
 2.407018563736220E-02 -8.713207044962340E-03 -2.872359421024980E-02
 2.407018563736220E-02 -7.293311639261840E-03 -2.911653218870827E-02
 2.407018563736220E-02 -5.855846007003707E-03 -2.943932589081713E-02
 2.407018563736220E-02 -4.404273128803169E-03 -2.969119767827461E-02
 2.407018563736220E-02 -2.942089970866554E-03 -2.987154076988336E-02
 2.407018563736220E-02 -1.472819060493501E-03 -2.997992070333949E-02
 2.407018563736220E-02 -5.513863779606676E-18 -3.001607638189037E-02
 2.407018563736220E-02  1.472819060493490E-03 -2.997992070333949E-02
 2.407018563736220E-02  2.942089970866543E-03 -2.987154076988336E-02
 2.407018563736220E-02  4.404273128803158E-03 -2.969119767827461E-02
 2.407018563736220E-02  5.855846007003696E-03 -2.943932589081713E-02
 2.407018563736220E-02  7.293311639261829E-03 -2.911653218870827E-02
 2.407018563736220E-02  8.713207044962328E-03 -2.872359421024980E-02
 2.407018563736220E-02  1.011211157170471E-02 -2.826145857744912E-02
 2.407018563736220E-02  1.148665513595449E-02 -2.773123861552396E-02
 2.407018563736220E-02  1.283352634186962E-02 -2.713421167080436E-02
 2.407018563736220E-02  1.414948045874302E-02 -2.647181603349356E-02
 2.407018563736220E-02  1.543134723784319E-02 -2.574564747270083E-02
 2.407018563736220E-02  1.667603854982100E-02 -2.495745539209398E-02
 2.407018563736220E-02  1.788055582428383E-02 -2.410913861543267E-02
 2.407018563736220E-02  1.904199727361427E-02 -2.320274081213562E-02
 2.407018563736220E-02  2.015756488363057E-02 -2.224044557390208E-02
 2.407018563736220E-02  2.122457115424805E-02 -2.122457115424805E-02
 2.649961452145794E-02  2.193254237925369E-02 -2.193254237925369E-02
 2.649961452145794E-02  2.298230251806349E-02 -2.082994482478845E-02
 2.649961452145794E-02  2.397669627709531E-02 -1.967716610875262E-02
 2.649961452145794E-02  2.491332807468504E-02 -1.847698337604460E-02
 2.649961452145794E-02  2.578994148279305E-02 -1.723228797199108E-02
 2.649961452145794E-02  2.660442466293693E-02 -1.594607847684288E-02
 2.649961452145794E-02  2.735481545379541E-02 -1.462145348193245E-02
 2.649961452145794E-02  2.803930609822684E-02 -1.326160412489598E-02
 2.649961452145794E-02  2.865624759831448E-02 -1.186980640194329E-02
 2.649961452145794E-02  2.920415368794695E-02 -1.044941327569608E-02
 2.649961452145794E-02  2.968170441336339E-02 -9.003846597607201E-03
 2.649961452145794E-02  3.008774931303779E-02 -7.536588864420875E-03
 2.649961452145794E-02  3.042131018924149E-02 -6.051174828532935E-03
 2.649961452145794E-02  3.068158346460724E-02 -4.551182982462743E-03
 2.649961452145794E-02  3.086794211801743E-02 -3.040226937951253E-03
 2.649961452145794E-02  3.097993719515291E-02 -1.521946720453809E-03
 2.649961452145794E-02  3.101729889006324E-02  0.000000000000000E+00
 2.649961452145794E-02  3.097993719515291E-02  1.521946720453809E-03
 2.649961452145794E-02  3.086794211801743E-02  3.040226937951253E-03
 2.649961452145794E-02  3.068158346460724E-02  4.551182982462743E-03
 2.649961452145794E-02  3.042131018924149E-02  6.051174828532935E-03
 2.649961452145794E-02  3.008774931303779E-02  7.536588864420875E-03
 2.649961452145794E-02  2.968170441336339E-02  9.003846597607199E-03
 2.649961452145794E-02  2.920415368794695E-02  1.044941327569607E-02
 2.649961452145794E-02  2.865624759831448E-02  1.186980640194329E-02
 2.649961452145794E-02  2.803930609822684E-02  1.326160412489598E-02
 2.649961452145794E-02  2.735481545379540E-02  1.462145348193246E-02
 2.649961452145794E-02  2.660442466293693E-02  1.594607847684288E-02
 2.649961452145794E-02  2.578994148279305E-02  1.723228797199108E-02
 2.649961452145794E-02  2.491332807468504E-02  1.847698337604460E-02
 2.649961452145794E-02  2.397669627709531E-02  1.967716610875261E-02
 2.649961452145794E-02  2.298230251806349E-02  2.082994482478845E-02
 2.649961452145794E-02  2.193254237925369E-02  2.193254237925369E-02
 2.649961452145794E-02  2.082994482478846E-02  2.298230251806348E-02
 2.649961452145794E-02  1.967716610875262E-02  2.397669627709531E-02
 2.649961452145794E-02  1.847698337604460E-02  2.491332807468504E-02
 2.649961452145794E-02  1.723228797199109E-02  2.578994148279305E-02
 2.649961452145794E-02  1.594607847684288E-02  2.660442466293693E-02
 2.649961452145794E-02  1.462145348193246E-02  2.735481545379540E-02
 2.649961452145794E-02  1.326160412489598E-02  2.803930609822684E-02
 2.649961452145794E-02  1.186980640194329E-02  2.865624759831448E-02
 2.649961452145794E-02  1.044941327569608E-02  2.920415368794694E-02
 2.649961452145794E-02  9.003846597607201E-03  2.968170441336339E-02
 2.649961452145794E-02  7.536588864420877E-03  3.008774931303779E-02
 2.649961452145794E-02  6.051174828532944E-03  3.042131018924149E-02
 2.649961452145794E-02  4.551182982462745E-03  3.068158346460724E-02
 2.649961452145794E-02  3.040226937951258E-03  3.086794211801742E-02
 2.649961452145794E-02  1.521946720453804E-03  3.097993719515291E-02
 2.649961452145794E-02  1.899261790195635E-18  3.101729889006324E-02
 2.649961452145794E-02 -1.521946720453801E-03  3.097993719515291E-02
 2.649961452145794E-02 -3.040226937951254E-03  3.086794211801743E-02
 2.649961452145794E-02 -4.551182982462741E-03  3.068158346460724E-02
 2.649961452145794E-02 -6.051174828532940E-03  3.042131018924149E-02
 2.649961452145794E-02 -7.536588864420874E-03  3.008774931303779E-02
 2.649961452145794E-02 -9.003846597607196E-03  2.968170441336339E-02
 2.649961452145794E-02 -1.044941327569608E-02  2.920415368794694E-02
 2.649961452145794E-02 -1.186980640194329E-02  2.865624759831448E-02
 2.649961452145794E-02 -1.326160412489597E-02  2.803930609822684E-02
 2.649961452145794E-02 -1.462145348193245E-02  2.735481545379541E-02
 2.649961452145794E-02 -1.594607847684288E-02  2.660442466293693E-02
 2.649961452145794E-02 -1.723228797199108E-02  2.578994148279306E-02
 2.649961452145794E-02 -1.847698337604460E-02  2.491332807468504E-02
 2.649961452145794E-02 -1.967716610875261E-02  2.397669627709531E-02
 2.649961452145794E-02 -2.082994482478846E-02  2.298230251806348E-02
 2.649961452145794E-02 -2.193254237925369E-02  2.193254237925369E-02
 2.649961452145794E-02 -2.298230251806348E-02  2.082994482478846E-02
 2.649961452145794E-02 -2.397669627709531E-02  1.967716610875262E-02
 2.649961452145794E-02 -2.491332807468504E-02  1.847698337604460E-02
 2.649961452145794E-02 -2.578994148279306E-02  1.723228797199108E-02
 2.649961452145794E-02 -2.660442466293693E-02  1.594607847684289E-02
 2.649961452145794E-02 -2.735481545379540E-02  1.462145348193246E-02
 2.649961452145794E-02 -2.803930609822684E-02  1.326160412489597E-02
 2.649961452145794E-02 -2.865624759831448E-02  1.186980640194329E-02
 2.649961452145794E-02 -2.920415368794694E-02  1.044941327569609E-02
 2.649961452145794E-02 -2.968170441336339E-02  9.003846597607203E-03
 2.649961452145794E-02 -3.008774931303779E-02  7.536588864420880E-03
 2.649961452145794E-02 -3.042131018924149E-02  6.051174828532947E-03
 2.649961452145794E-02 -3.068158346460724E-02  4.551182982462747E-03
 2.649961452145794E-02 -3.086794211801742E-02  3.040226937951260E-03
 2.649961452145794E-02 -3.097993719515291E-02  1.521946720453806E-03
 2.649961452145794E-02 -3.101729889006324E-02  3.798523580391271E-18
 2.649961452145794E-02 -3.097993719515291E-02 -1.521946720453799E-03
 2.649961452145794E-02 -3.086794211801743E-02 -3.040226937951239E-03
 2.649961452145794E-02 -3.068158346460723E-02 -4.551182982462753E-03
 2.649961452145794E-02 -3.042131018924149E-02 -6.051174828532939E-03
 2.649961452145794E-02 -3.008774931303779E-02 -7.536588864420872E-03
 2.649961452145794E-02 -2.968170441336339E-02 -9.003846597607194E-03
 2.649961452145794E-02 -2.920415368794695E-02 -1.044941327569606E-02
 2.649961452145794E-02 -2.865624759831449E-02 -1.186980640194327E-02
 2.649961452145794E-02 -2.803930609822683E-02 -1.326160412489598E-02
 2.649961452145794E-02 -2.735481545379541E-02 -1.462145348193245E-02
 2.649961452145794E-02 -2.660442466293693E-02 -1.594607847684288E-02
 2.649961452145794E-02 -2.578994148279306E-02 -1.723228797199108E-02
 2.649961452145794E-02 -2.491332807468506E-02 -1.847698337604459E-02
 2.649961452145794E-02 -2.397669627709530E-02 -1.967716610875262E-02
 2.649961452145794E-02 -2.298230251806348E-02 -2.082994482478846E-02
 2.649961452145794E-02 -2.193254237925370E-02 -2.193254237925369E-02
 2.649961452145794E-02 -2.082994482478846E-02 -2.298230251806348E-02
 2.649961452145794E-02 -1.967716610875263E-02 -2.397669627709530E-02
 2.649961452145794E-02 -1.847698337604459E-02 -2.491332807468505E-02
 2.649961452145794E-02 -1.723228797199108E-02 -2.578994148279305E-02
 2.649961452145794E-02 -1.594607847684289E-02 -2.660442466293693E-02
 2.649961452145794E-02 -1.462145348193246E-02 -2.735481545379540E-02
 2.649961452145794E-02 -1.326160412489599E-02 -2.803930609822683E-02
 2.649961452145794E-02 -1.186980640194328E-02 -2.865624759831449E-02
 2.649961452145794E-02 -1.044941327569607E-02 -2.920415368794695E-02
 2.649961452145794E-02 -9.003846597607204E-03 -2.968170441336339E-02
 2.649961452145794E-02 -7.536588864420882E-03 -3.008774931303779E-02
 2.649961452145794E-02 -6.051174828532948E-03 -3.042131018924148E-02
 2.649961452145794E-02 -4.551182982462762E-03 -3.068158346460723E-02
 2.649961452145794E-02 -3.040226937951248E-03 -3.086794211801743E-02
 2.649961452145794E-02 -1.521946720453808E-03 -3.097993719515291E-02
 2.649961452145794E-02 -5.697785370586905E-18 -3.101729889006324E-02
 2.649961452145794E-02  1.521946720453797E-03 -3.097993719515291E-02
 2.649961452145794E-02  3.040226937951238E-03 -3.086794211801743E-02
 2.649961452145794E-02  4.551182982462751E-03 -3.068158346460723E-02
 2.649961452145794E-02  6.051174828532937E-03 -3.042131018924149E-02
 2.649961452145794E-02  7.536588864420870E-03 -3.008774931303779E-02
 2.649961452145794E-02  9.003846597607192E-03 -2.968170441336339E-02
 2.649961452145794E-02  1.044941327569606E-02 -2.920415368794695E-02
 2.649961452145794E-02  1.186980640194327E-02 -2.865624759831449E-02
 2.649961452145794E-02  1.326160412489598E-02 -2.803930609822684E-02
 2.649961452145794E-02  1.462145348193245E-02 -2.735481545379541E-02
 2.649961452145794E-02  1.594607847684288E-02 -2.660442466293693E-02
 2.649961452145794E-02  1.723228797199107E-02 -2.578994148279306E-02
 2.649961452145794E-02  1.847698337604458E-02 -2.491332807468506E-02
 2.649961452145794E-02  1.967716610875262E-02 -2.397669627709530E-02
 2.649961452145794E-02  2.082994482478845E-02 -2.298230251806348E-02
 2.649961452145794E-02  2.193254237925369E-02 -2.193254237925369E-02
 2.896777597936166E-02  2.258877943595612E-02 -2.258877943595611E-02
 2.896777597936166E-02  2.366994913467118E-02 -2.145319138903643E-02
 2.896777597936166E-02  2.469409585267814E-02 -2.026592072498293E-02
 2.896777597936166E-02  2.565875233082865E-02 -1.902982768281793E-02
 2.896777597936166E-02  2.656159462717292E-02 -1.774789011894897E-02
 2.896777597936166E-02  2.740044771553942E-02 -1.642319633325189E-02
 2.896777597936166E-02  2.817329072536342E-02 -1.505893762908590E-02
 2.896777597936166E-02  2.887826181014120E-02 -1.365840062516429E-02
 2.896777597936166E-02  2.951366263278135E-02 -1.222495933780206E-02
 2.896777597936166E-02  3.007796245704760E-02 -1.076206705261509E-02
 2.896777597936166E-02  3.056980183523645E-02 -9.273248005252626E-03
 2.896777597936166E-02  3.098799588320583E-02 -7.762088891204917E-03
 2.896777597936166E-02  3.133153713486468E-02 -6.232230225139600E-03
 2.896777597936166E-02  3.159959796924711E-02 -4.687357570583026E-03
 2.896777597936166E-02  3.179153260432373E-02 -3.131192661074887E-03
 2.896777597936166E-02  3.190687865274715E-02 -1.567484434186133E-03
 2.896777597936166E-02  3.194535823578361E-02  0.000000000000000E+00
 2.896777597936166E-02  3.190687865274715E-02  1.567484434186133E-03
 2.896777597936166E-02  3.179153260432373E-02  3.131192661074887E-03
 2.896777597936166E-02  3.159959796924711E-02  4.687357570583026E-03
 2.896777597936166E-02  3.133153713486468E-02  6.232230225139600E-03
 2.896777597936166E-02  3.098799588320583E-02  7.762088891204917E-03
 2.896777597936166E-02  3.056980183523646E-02  9.273248005252624E-03
 2.896777597936166E-02  3.007796245704760E-02  1.076206705261509E-02
 2.896777597936166E-02  2.951366263278135E-02  1.222495933780206E-02
 2.896777597936166E-02  2.887826181014120E-02  1.365840062516430E-02
 2.896777597936166E-02  2.817329072536342E-02  1.505893762908591E-02
 2.896777597936166E-02  2.740044771553942E-02  1.642319633325189E-02
 2.896777597936166E-02  2.656159462717292E-02  1.774789011894897E-02
 2.896777597936166E-02  2.565875233082865E-02  1.902982768281793E-02
 2.896777597936166E-02  2.469409585267814E-02  2.026592072498292E-02
 2.896777597936166E-02  2.366994913467118E-02  2.145319138903643E-02
 2.896777597936166E-02  2.258877943595612E-02  2.258877943595611E-02
 2.896777597936166E-02  2.145319138903644E-02  2.366994913467118E-02
 2.896777597936166E-02  2.026592072498293E-02  2.469409585267814E-02
 2.896777597936166E-02  1.902982768281793E-02  2.565875233082865E-02
 2.896777597936166E-02  1.774789011894897E-02  2.656159462717292E-02
 2.896777597936166E-02  1.642319633325189E-02  2.740044771553942E-02
 2.896777597936166E-02  1.505893762908591E-02  2.817329072536342E-02
 2.896777597936166E-02  1.365840062516430E-02  2.887826181014120E-02
 2.896777597936166E-02  1.222495933780206E-02  2.951366263278135E-02
 2.896777597936166E-02  1.076206705261510E-02  3.007796245704759E-02
 2.896777597936166E-02  9.273248005252626E-03  3.056980183523646E-02
 2.896777597936166E-02  7.762088891204918E-03  3.098799588320583E-02
 2.896777597936166E-02  6.232230225139609E-03  3.133153713486468E-02
 2.896777597936166E-02  4.687357570583028E-03  3.159959796924711E-02
 2.896777597936166E-02  3.131192661074892E-03  3.179153260432373E-02
 2.896777597936166E-02  1.567484434186128E-03  3.190687865274715E-02
 2.896777597936166E-02  1.956089035553397E-18  3.194535823578361E-02
 2.896777597936166E-02 -1.567484434186124E-03  3.190687865274715E-02
 2.896777597936166E-02 -3.131192661074888E-03  3.179153260432373E-02
 2.896777597936166E-02 -4.687357570583024E-03  3.159959796924711E-02
 2.896777597936166E-02 -6.232230225139605E-03  3.133153713486468E-02
 2.896777597936166E-02 -7.762088891204915E-03  3.098799588320583E-02
 2.896777597936166E-02 -9.273248005252621E-03  3.056980183523646E-02
 2.896777597936166E-02 -1.076206705261509E-02  3.007796245704759E-02
 2.896777597936166E-02 -1.222495933780206E-02  2.951366263278135E-02
 2.896777597936166E-02 -1.365840062516429E-02  2.887826181014120E-02
 2.896777597936166E-02 -1.505893762908591E-02  2.817329072536342E-02
 2.896777597936166E-02 -1.642319633325189E-02  2.740044771553942E-02
 2.896777597936166E-02 -1.774789011894896E-02  2.656159462717293E-02
 2.896777597936166E-02 -1.902982768281793E-02  2.565875233082865E-02
 2.896777597936166E-02 -2.026592072498292E-02  2.469409585267814E-02
 2.896777597936166E-02 -2.145319138903644E-02  2.366994913467118E-02
 2.896777597936166E-02 -2.258877943595611E-02  2.258877943595612E-02
 2.896777597936166E-02 -2.366994913467117E-02  2.145319138903644E-02
 2.896777597936166E-02 -2.469409585267814E-02  2.026592072498293E-02
 2.896777597936166E-02 -2.565875233082865E-02  1.902982768281793E-02
 2.896777597936166E-02 -2.656159462717293E-02  1.774789011894897E-02
 2.896777597936166E-02 -2.740044771553942E-02  1.642319633325190E-02
 2.896777597936166E-02 -2.817329072536342E-02  1.505893762908591E-02
 2.896777597936166E-02 -2.887826181014120E-02  1.365840062516429E-02
 2.896777597936166E-02 -2.951366263278135E-02  1.222495933780207E-02
 2.896777597936166E-02 -3.007796245704759E-02  1.076206705261510E-02
 2.896777597936166E-02 -3.056980183523645E-02  9.273248005252628E-03
 2.896777597936166E-02 -3.098799588320583E-02  7.762088891204921E-03
 2.896777597936166E-02 -3.133153713486468E-02  6.232230225139612E-03
 2.896777597936166E-02 -3.159959796924711E-02  4.687357570583029E-03
 2.896777597936166E-02 -3.179153260432373E-02  3.131192661074894E-03
 2.896777597936166E-02 -3.190687865274715E-02  1.567484434186130E-03
 2.896777597936166E-02 -3.194535823578361E-02  3.912178071106794E-18
 2.896777597936166E-02 -3.190687865274715E-02 -1.567484434186122E-03
 2.896777597936166E-02 -3.179153260432373E-02 -3.131192661074872E-03
 2.896777597936166E-02 -3.159959796924711E-02 -4.687357570583035E-03
 2.896777597936166E-02 -3.133153713486468E-02 -6.232230225139603E-03
 2.896777597936166E-02 -3.098799588320583E-02 -7.762088891204913E-03
 2.896777597936166E-02 -3.056980183523646E-02 -9.273248005252619E-03
 2.896777597936166E-02 -3.007796245704760E-02 -1.076206705261508E-02
 2.896777597936166E-02 -2.951366263278136E-02 -1.222495933780205E-02
 2.896777597936166E-02 -2.887826181014120E-02 -1.365840062516430E-02
 2.896777597936166E-02 -2.817329072536342E-02 -1.505893762908590E-02
 2.896777597936166E-02 -2.740044771553942E-02 -1.642319633325189E-02
 2.896777597936166E-02 -2.656159462717293E-02 -1.774789011894896E-02
 2.896777597936166E-02 -2.565875233082866E-02 -1.902982768281791E-02
 2.896777597936166E-02 -2.469409585267813E-02 -2.026592072498293E-02
 2.896777597936166E-02 -2.366994913467118E-02 -2.145319138903644E-02
 2.896777597936166E-02 -2.258877943595613E-02 -2.258877943595611E-02
 2.896777597936166E-02 -2.145319138903645E-02 -2.366994913467117E-02
 2.896777597936166E-02 -2.026592072498294E-02 -2.469409585267813E-02
 2.896777597936166E-02 -1.902982768281792E-02 -2.565875233082865E-02
 2.896777597936166E-02 -1.774789011894897E-02 -2.656159462717292E-02
 2.896777597936166E-02 -1.642319633325190E-02 -2.740044771553942E-02
 2.896777597936166E-02 -1.505893762908591E-02 -2.817329072536342E-02
 2.896777597936166E-02 -1.365840062516431E-02 -2.887826181014119E-02
 2.896777597936166E-02 -1.222495933780205E-02 -2.951366263278135E-02
 2.896777597936166E-02 -1.076206705261509E-02 -3.007796245704760E-02
 2.896777597936166E-02 -9.273248005252631E-03 -3.056980183523645E-02
 2.896777597936166E-02 -7.762088891204923E-03 -3.098799588320583E-02
 2.896777597936166E-02 -6.232230225139614E-03 -3.133153713486467E-02
 2.896777597936166E-02 -4.687357570583046E-03 -3.159959796924711E-02
 2.896777597936166E-02 -3.131192661074882E-03 -3.179153260432373E-02
 2.896777597936166E-02 -1.567484434186132E-03 -3.190687865274715E-02
 2.896777597936166E-02 -5.868267106660191E-18 -3.194535823578361E-02
 2.896777597936166E-02  1.567484434186120E-03 -3.190687865274715E-02
 2.896777597936166E-02  3.131192661074871E-03 -3.179153260432373E-02
 2.896777597936166E-02  4.687357570583034E-03 -3.159959796924711E-02
 2.896777597936166E-02  6.232230225139601E-03 -3.133153713486468E-02
 2.896777597936166E-02  7.762088891204911E-03 -3.098799588320583E-02
 2.896777597936166E-02  9.273248005252617E-03 -3.056980183523646E-02
 2.896777597936166E-02  1.076206705261508E-02 -3.007796245704760E-02
 2.896777597936166E-02  1.222495933780204E-02 -2.951366263278136E-02
 2.896777597936166E-02  1.365840062516430E-02 -2.887826181014120E-02
 2.896777597936166E-02  1.505893762908590E-02 -2.817329072536342E-02
 2.896777597936166E-02  1.642319633325189E-02 -2.740044771553943E-02
 2.896777597936166E-02  1.774789011894896E-02 -2.656159462717293E-02
 2.896777597936166E-02  1.902982768281791E-02 -2.565875233082866E-02
 2.896777597936166E-02  2.026592072498293E-02 -2.469409585267813E-02
 2.896777597936166E-02  2.145319138903643E-02 -2.366994913467118E-02
 2.896777597936166E-02  2.258877943595612E-02 -2.258877943595611E-02
 3.146962866004919E-02  2.319816780228863E-02 -2.319816780228863E-02
 3.146962866004919E-02  2.430850473592651E-02 -2.203194445049552E-02
 3.146962866004919E-02  2.536028035248199E-02 -2.081264421475075E-02
 3.146962866004919E-02  2.635096083237012E-02 -1.954320449612031E-02
 3.146962866004919E-02  2.727815953954151E-02 -1.822668348607618E-02
 3.146962866004919E-02  2.813964277109755E-02 -1.686625279904516E-02
 3.146962866004919E-02  2.893333513847641E-02 -1.546518983171198E-02
 3.146962866004919E-02  2.965732456724583E-02 -1.402686986748356E-02
 3.146962866004919E-02  3.030986690345792E-02 -1.255475794513568E-02
 3.146962866004919E-02  3.088939011546880E-02 -1.105240051123104E-02
 3.146962866004919E-02  3.139449808110047E-02 -9.523416876418901E-03
 3.146962866004919E-02  3.182397395102151E-02 -7.971490496198668E-03
 3.146962866004919E-02  3.217678308024364E-02 -6.400360097152986E-03
 3.146962866004919E-02  3.245207552067212E-02 -4.813810670027927E-03
 3.146962866004919E-02  3.264918806870520E-02 -3.215664351358759E-03
 3.146962866004919E-02  3.276764586294964E-02 -1.609771215608234E-03
 3.146962866004919E-02  3.280716352820343E-02  0.000000000000000E+00
 3.146962866004919E-02  3.276764586294964E-02  1.609771215608234E-03
 3.146962866004919E-02  3.264918806870520E-02  3.215664351358759E-03
 3.146962866004919E-02  3.245207552067212E-02  4.813810670027927E-03
 3.146962866004919E-02  3.217678308024364E-02  6.400360097152986E-03
 3.146962866004919E-02  3.182397395102151E-02  7.971490496198668E-03
 3.146962866004919E-02  3.139449808110047E-02  9.523416876418899E-03
 3.146962866004919E-02  3.088939011546880E-02  1.105240051123104E-02
 3.146962866004919E-02  3.030986690345792E-02  1.255475794513568E-02
 3.146962866004919E-02  2.965732456724583E-02  1.402686986748356E-02
 3.146962866004919E-02  2.893333513847641E-02  1.546518983171198E-02
 3.146962866004919E-02  2.813964277109755E-02  1.686625279904516E-02
 3.146962866004919E-02  2.727815953954151E-02  1.822668348607618E-02
 3.146962866004919E-02  2.635096083237012E-02  1.954320449612031E-02
 3.146962866004919E-02  2.536028035248199E-02  2.081264421475074E-02
 3.146962866004919E-02  2.430850473592651E-02  2.203194445049552E-02
 3.146962866004919E-02  2.319816780228863E-02  2.319816780228863E-02
 3.146962866004919E-02  2.203194445049552E-02  2.430850473592651E-02
 3.146962866004919E-02  2.081264421475075E-02  2.536028035248199E-02
 3.146962866004919E-02  1.954320449612031E-02  2.635096083237012E-02
 3.146962866004919E-02  1.822668348607618E-02  2.727815953954151E-02
 3.146962866004919E-02  1.686625279904516E-02  2.813964277109755E-02
 3.146962866004919E-02  1.546518983171199E-02  2.893333513847641E-02
 3.146962866004919E-02  1.402686986748356E-02  2.965732456724583E-02
 3.146962866004919E-02  1.255475794513568E-02  3.030986690345792E-02
 3.146962866004919E-02  1.105240051123105E-02  3.088939011546879E-02
 3.146962866004919E-02  9.523416876418901E-03  3.139449808110047E-02
 3.146962866004919E-02  7.971490496198670E-03  3.182397395102151E-02
 3.146962866004919E-02  6.400360097152995E-03  3.217678308024364E-02
 3.146962866004919E-02  4.813810670027930E-03  3.245207552067212E-02