TITLE = "RECT_Wall"
VARIABLES = "X", "Y", "Z"
ZONE T="RECT_Wall", I=33, J=33, F=POINT
 4.796276497180687E-03 -1.099999100150335E-02 -1.099999100150335E-02
 4.473350362043485E-03 -1.099999100150335E-02 -1.031249156390939E-02
 4.174625435907352E-03 -1.099999100150335E-02 -9.624992126315434E-03
 3.899425905401344E-03 -1.099999100150335E-02 -8.937492688721474E-03
 3.647128197682557E-03 -1.099999100150335E-02 -8.249993251127515E-03
 3.417157962744208E-03 -1.099999100150335E-02 -7.562493813533556E-03
 3.208987661769177E-03 -1.099999100150335E-02 -6.874994375939596E-03
 3.022134756997793E-03 -1.099999100150335E-02 -6.187494938345636E-03
 2.856160498248660E-03 -1.099999100150335E-02 -5.499995500751677E-03
 2.710669293978317E-03 -1.099999100150335E-02 -4.812496063157717E-03
 2.585308639173659E-03 -1.099999100150335E-02 -4.124996625563758E-03
 2.479769548018858E-03 -1.099999100150335E-02 -3.437497187969798E-03
 2.393787407398482E-03 -1.099999100150335E-02 -2.749997750375838E-03
 2.327143131594386E-03 -1.099999100150335E-02 -2.062498312781879E-03
 2.279664465419109E-03 -1.099999100150335E-02 -1.374998875187919E-03
 2.251227260933860E-03 -1.099999100150335E-02 -6.874994375939596E-04
 2.241756550387225E-03 -1.099999100150335E-02  0.000000000000000E+00
 2.251227260933860E-03 -1.099999100150335E-02  6.874994375939596E-04
 2.279664465419109E-03 -1.099999100150335E-02  1.374998875187919E-03
 2.327143131594386E-03 -1.099999100150335E-02  2.062498312781879E-03
 2.393787407398482E-03 -1.099999100150335E-02  2.749997750375838E-03
 2.479769548018858E-03 -1.099999100150335E-02  3.437497187969798E-03
 2.585308639173659E-03 -1.099999100150335E-02  4.124996625563758E-03
 2.710669293978317E-03 -1.099999100150335E-02  4.812496063157717E-03
 2.856160498248660E-03 -1.099999100150335E-02  5.499995500751677E-03
 3.022134756997793E-03 -1.099999100150335E-02  6.187494938345636E-03
 3.208987661769177E-03 -1.099999100150335E-02  6.874994375939596E-03
 3.417157962744208E-03 -1.099999100150335E-02  7.562493813533556E-03
 3.647128197682557E-03 -1.099999100150335E-02  8.249993251127515E-03
 3.899425905401344E-03 -1.099999100150335E-02  8.937492688721474E-03
 4.174625435907352E-03 -1.099999100150335E-02  9.624992126315434E-03
 4.473350362043485E-03 -1.099999100150335E-02  1.031249156390939E-02
 4.796276497180687E-03 -1.099999100150335E-02  1.099999100150335E-02
 4.473350362043485E-03 -1.031249156390939E-02 -1.099999100150335E-02
 4.154143593817525E-03 -1.031249156390939E-02 -1.031249156390939E-02
 3.858895513330712E-03 -1.031249156390939E-02 -9.624992126315434E-03
 3.586937564566212E-03 -1.031249156390939E-02 -8.937492688721474E-03
 3.337651573049878E-03 -1.031249156390939E-02 -8.249993251127515E-03
 3.110466745605212E-03 -1.031249156390939E-02 -7.562493813533556E-03
 2.904857287249926E-03 -1.031249156390939E-02 -6.874994375939596E-03
 2.720340646040191E-03 -1.031249156390939E-02 -6.187494938345636E-03
 2.556476398886914E-03 -1.031249156390939E-02 -5.499995500751677E-03
 2.412865785112374E-03 -1.031249156390939E-02 -4.812496063157717E-03
 2.289151877110478E-03 -1.031249156390939E-02 -4.124996625563758E-03
 2.185020347003422E-03 -1.031249156390939E-02 -3.437497187969798E-03
 2.100200744902051E-03 -1.031249156390939E-02 -2.749997750375838E-03
 2.034468152179847E-03 -1.031249156390939E-02 -2.062498312781879E-03
 1.987645020648328E-03 -1.031249156390939E-02 -1.374998875187919E-03
 1.959602968525259E-03 -1.031249156390939E-02 -6.874994375939596E-04
 1.950264291034943E-03 -1.031249156390939E-02  0.000000000000000E+00
 1.959602968525259E-03 -1.031249156390939E-02  6.874994375939596E-04
 1.987645020648328E-03 -1.031249156390939E-02  1.374998875187919E-03
 2.034468152179847E-03 -1.031249156390939E-02  2.062498312781879E-03
 2.100200744902051E-03 -1.031249156390939E-02  2.749997750375838E-03
 2.185020347003422E-03 -1.031249156390939E-02  3.437497187969798E-03
 2.289151877110478E-03 -1.031249156390939E-02  4.124996625563758E-03
 2.412865785112374E-03 -1.031249156390939E-02  4.812496063157717E-03
 2.556476398886914E-03 -1.031249156390939E-02  5.499995500751677E-03
 2.720340646040191E-03 -1.031249156390939E-02  6.187494938345636E-03
 2.904857287249926E-03 -1.031249156390939E-02  6.874994375939596E-03
 3.110466745605212E-03 -1.031249156390939E-02  7.562493813533556E-03
 3.337651573049878E-03 -1.031249156390939E-02  8.249993251127515E-03
 3.586937564566212E-03 -1.031249156390939E-02  8.937492688721474E-03
 3.858895513330712E-03 -1.031249156390939E-02  9.624992126315434E-03
 4.154143593817525E-03 -1.031249156390939E-02  1.031249156390939E-02
 4.473350362043485E-03 -1.031249156390939E-02  1.099999100150335E-02
 4.174625435907352E-03 -9.624992126315434E-03 -1.099999100150335E-02
 3.858895513330712E-03 -9.624992126315434E-03 -1.031249156390939E-02
 3.566905110872302E-03 -9.624992126315434E-03 -9.624992126315434E-03
 3.297992181179729E-03 -9.624992126315434E-03 -8.937492688721474E-03
 3.051543222227197E-03 -9.624992126315434E-03 -8.249993251127515E-03
 2.826990252402628E-03 -9.624992126315434E-03 -7.562493813533556E-03
 2.623808409962504E-03 -9.624992126315434E-03 -6.874994375939596E-03
 2.441514205793654E-03 -9.624992126315434E-03 -6.187494938345636E-03
 2.279664465419109E-03 -9.624992126315434E-03 -5.499995500751677E-03
 2.137855993559497E-03 -9.624992126315434E-03 -4.812496063157717E-03
 2.015725977590485E-03 -9.624992126315434E-03 -4.124996625563758E-03
 1.912953110483809E-03 -9.624992126315434E-03 -3.437497187969798E-03
 1.829259357148148E-03 -9.624992126315434E-03 -2.749997750375838E-03
 1.764412213461332E-03 -9.624992126315434E-03 -2.062498312781879E-03
 1.718227225456818E-03 -9.624992126315434E-03 -1.374998875187919E-03
 1.690570466300916E-03 -9.624992126315434E-03 -6.874994375939596E-04
 1.681360635183910E-03 -9.624992126315434E-03  0.000000000000000E+00
 1.690570466300916E-03 -9.624992126315434E-03  6.874994375939596E-04
 1.718227225456818E-03 -9.624992126315434E-03  1.374998875187919E-03
 1.764412213461332E-03 -9.624992126315434E-03  2.062498312781879E-03
 1.829259357148148E-03 -9.624992126315434E-03  2.749997750375838E-03
 1.912953110483809E-03 -9.624992126315434E-03  3.437497187969798E-03
 2.015725977590485E-03 -9.624992126315434E-03  4.124996625563758E-03
 2.137855993559497E-03 -9.624992126315434E-03  4.812496063157717E-03
 2.279664465419109E-03 -9.624992126315434E-03  5.499995500751677E-03
 2.441514205793654E-03 -9.624992126315434E-03  6.187494938345636E-03
 2.623808409962504E-03 -9.624992126315434E-03  6.874994375939596E-03
 2.826990252402628E-03 -9.624992126315434E-03  7.562493813533556E-03
 3.051543222227197E-03 -9.624992126315434E-03  8.249993251127515E-03
 3.297992181179729E-03 -9.624992126315434E-03  8.937492688721474E-03
 3.566905110872302E-03 -9.624992126315434E-03  9.624992126315434E-03
 3.858895513330712E-03 -9.624992126315434E-03  1.031249156390939E-02
 4.174625435907352E-03 -9.624992126315434E-03  1.099999100150335E-02
 3.899425905401344E-03 -8.937492688721474E-03 -1.099999100150335E-02
 3.586937564566212E-03 -8.937492688721474E-03 -1.031249156390939E-02
 3.297992181179729E-03 -8.937492688721474E-03 -9.624992126315434E-03
 3.031933626465541E-03 -8.937492688721474E-03 -8.937492688721474E-03
 2.788152510208483E-03 -8.937492688721474E-03 -8.249993251127515E-03
 2.566083083818036E-03 -8.937492688721474E-03 -7.562493813533556E-03
 2.365200766975793E-03 -8.937492688721474E-03 -6.874994375939596E-03
 2.185020347003421E-03 -8.937492688721474E-03 -6.187494938345636E-03
 2.025094915004652E-03 -8.937492688721474E-03 -5.499995500751677E-03
 1.885015607914582E-03 -8.937492688721474E-03 -4.812496063157717E-03
 1.764412213461326E-03 -8.937492688721474E-03 -4.124996625563758E-03
 1.662954657186484E-03 -8.937492688721474E-03 -3.437497187969798E-03
 1.580355320144512E-03 -8.937492688721474E-03 -2.749997750375838E-03
 1.516372032101157E-03 -8.937492688721474E-03 -2.062498312781879E-03
 1.470811459593461E-03 -8.937492688721474E-03 -1.374998875187919E-03
 1.443532488781911E-03 -8.937492688721474E-03 -6.874994375939596E-04
 1.434449130384465E-03 -8.937492688721474E-03  0.000000000000000E+00
 1.443532488781911E-03 -8.937492688721474E-03  6.874994375939596E-04
 1.470811459593461E-03 -8.937492688721474E-03  1.374998875187919E-03
 1.516372032101157E-03 -8.937492688721474E-03  2.062498312781879E-03
 1.580355320144512E-03 -8.937492688721474E-03  2.749997750375838E-03
 1.662954657186484E-03 -8.937492688721474E-03  3.437497187969798E-03
 1.764412213461326E-03 -8.937492688721474E-03  4.124996625563758E-03
 1.885015607914582E-03 -8.937492688721474E-03  4.812496063157717E-03
 2.025094915004652E-03 -8.937492688721474E-03  5.499995500751677E-03
 2.185020347003421E-03 -8.937492688721474E-03  6.187494938345636E-03
 2.365200766975793E-03 -8.937492688721474E-03  6.874994375939596E-03
 2.566083083818036E-03 -8.937492688721474E-03  7.562493813533556E-03
 2.788152510208483E-03 -8.937492688721474E-03  8.249993251127515E-03
 3.031933626465541E-03 -8.937492688721474E-03  8.937492688721474E-03
 3.297992181179729E-03 -8.937492688721474E-03  9.624992126315434E-03
 3.586937564566212E-03 -8.937492688721474E-03  1.031249156390939E-02
 3.899425905401344E-03 -8.937492688721474E-03  1.099999100150335E-02
 3.647128197682557E-03 -8.249993251127515E-03 -1.099999100150335E-02
 3.337651573049878E-03 -8.249993251127515E-03 -1.031249156390939E-02
 3.051543222227197E-03 -8.249993251127515E-03 -9.624992126315434E-03
 2.788152510208483E-03 -8.249993251127515E-03 -8.937492688721474E-03
 2.546873779774760E-03 -8.249993251127515E-03 -8.249993251127515E-03
 2.327143131594386E-03 -8.249993251127515E-03 -7.562493813533556E-03
 2.128435813834650E-03 -8.249993251127515E-03 -6.874994375939596E-03
 1.950264291034953E-03 -8.249993251127515E-03 -6.187494938345636E-03
 1.792177088582141E-03 -8.249993251127515E-03 -5.499995500751677E-03
 1.653758527785418E-03 -8.249993251127515E-03 -4.812496063157717E-03
 1.534629466829408E-03 -8.249993251127515E-03 -4.124996625563758E-03
 1.434449130384465E-03 -8.249993251127515E-03 -3.437497187969798E-03
 1.352918029808345E-03 -8.249993251127515E-03 -2.749997750375838E-03
 1.289781837145318E-03 -8.249993251127515E-03 -2.062498312781879E-03
 1.244835887527127E-03 -8.249993251127515E-03 -1.374998875187919E-03
 1.217929783113036E-03 -8.249993251127515E-03 -6.874994375939596E-04
 1.208971424750264E-03 -8.249993251127515E-03  0.000000000000000E+00
 1.217929783113036E-03 -8.249993251127515E-03  6.874994375939596E-04
 1.244835887527127E-03 -8.249993251127515E-03  1.374998875187919E-03
 1.289781837145318E-03 -8.249993251127515E-03  2.062498312781879E-03
 1.352918029808345E-03 -8.249993251127515E-03  2.749997750375838E-03
 1.434449130384465E-03 -8.249993251127515E-03  3.437497187969798E-03
 1.534629466829408E-03 -8.249993251127515E-03  4.124996625563758E-03
 1.653758527785418E-03 -8.249993251127515E-03  4.812496063157717E-03
 1.792177088582141E-03 -8.249993251127515E-03  5.499995500751677E-03
 1.950264291034953E-03 -8.249993251127515E-03  6.187494938345636E-03
 2.128435813834650E-03 -8.249993251127515E-03  6.874994375939596E-03
 2.327143131594386E-03 -8.249993251127515E-03  7.562493813533556E-03
 2.546873779774760E-03 -8.249993251127515E-03  8.249993251127515E-03
 2.788152510208483E-03 -8.249993251127515E-03  8.937492688721474E-03
 3.051543222227197E-03 -8.249993251127515E-03  9.624992126315434E-03
 3.337651573049878E-03 -8.249993251127515E-03  1.031249156390939E-02
 3.647128197682557E-03 -8.249993251127515E-03  1.099999100150335E-02
 3.417157962744208E-03 -7.562493813533556E-03 -1.099999100150335E-02
 3.110466745605212E-03 -7.562493813533556E-03 -1.031249156390939E-02
 2.826990252402628E-03 -7.562493813533556E-03 -9.624992126315434E-03
 2.566083083818036E-03 -7.562493813533556E-03 -8.937492688721474E-03
 2.327143131594386E-03 -7.562493813533556E-03 -8.249993251127515E-03
 2.109608184489836E-03 -7.562493813533556E-03 -7.562493813533556E-03
 1.912953110483809E-03 -7.562493813533556E-03 -6.874994375939596E-03
 1.736687702887822E-03 -7.562493813533556E-03 -6.187494938345636E-03
 1.580355320144521E-03 -7.562493813533556E-03 -5.499995500751677E-03
 1.443532488781930E-03 -7.562493813533556E-03 -4.812496063157717E-03
 1.325829663326892E-03 -7.562493813533556E-03 -4.124996625563758E-03
 1.226893324303651E-03 -7.562493813533556E-03 -3.437497187969798E-03
 1.146409516441498E-03 -7.562493813533556E-03 -2.749997750375838E-03
 1.084108755682704E-03 -7.562493813533556E-03 -2.062498312781879E-03
 1.039771958362269E-03 -7.562493813533556E-03 -1.374998875187919E-03
 1.013236710692822E-03 -7.562493813533556E-03 -6.874994375939596E-04
 1.004402908971261E-03 -7.562493813533556E-03  0.000000000000000E+00
 1.013236710692822E-03 -7.562493813533556E-03  6.874994375939596E-04
 1.039771958362269E-03 -7.562493813533556E-03  1.374998875187919E-03
 1.084108755682704E-03 -7.562493813533556E-03  2.062498312781879E-03
 1.146409516441498E-03 -7.562493813533556E-03  2.749997750375838E-03
 1.226893324303651E-03 -7.562493813533556E-03  3.437497187969798E-03
 1.325829663326892E-03 -7.562493813533556E-03  4.124996625563758E-03
 1.443532488781930E-03 -7.562493813533556E-03  4.812496063157717E-03
 1.580355320144521E-03 -7.562493813533556E-03  5.499995500751677E-03
 1.736687702887822E-03 -7.562493813533556E-03  6.187494938345636E-03
 1.912953110483809E-03 -7.562493813533556E-03  6.874994375939596E-03
 2.109608184489836E-03 -7.562493813533556E-03  7.562493813533556E-03
 2.327143131594386E-03 -7.562493813533556E-03  8.249993251127515E-03
 2.566083083818036E-03 -7.562493813533556E-03  8.937492688721474E-03
 2.826990252402628E-03 -7.562493813533556E-03  9.624992126315434E-03
 3.110466745605212E-03 -7.562493813533556E-03  1.031249156390939E-02
 3.417157962744208E-03 -7.562493813533556E-03  1.099999100150335E-02
 3.208987661769177E-03 -6.874994375939596E-03 -1.099999100150335E-02
 2.904857287249926E-03 -6.874994375939596E-03 -1.031249156390939E-02
 2.623808409962504E-03 -6.874994375939596E-03 -9.624992126315434E-03
 2.365200766975793E-03 -6.874994375939596E-03 -8.937492688721474E-03
 2.128435813834650E-03 -6.874994375939596E-03 -8.249993251127515E-03
 1.912953110483809E-03 -6.874994375939596E-03 -7.562493813533556E-03
 1.718227225456818E-03 -6.874994375939596E-03 -6.874994375939596E-03
 1.543765256426983E-03 -6.874994375939596E-03 -6.187494938345636E-03
 1.389105125526472E-03 -6.874994375939596E-03 -5.499995500751677E-03
 1.253814876363362E-03 -6.874994375939596E-03 -4.812496063157717E-03
 1.137493263709765E-03 -6.874994375939596E-03 -4.124996625563758E-03
 1.039771958362254E-03 -6.874994375939596E-03 -3.437497187969798E-03
 9.603196408024936E-04 -6.874994375939596E-03 -2.749997750375838E-03
 8.988480658961752E-04 -6.874994375939596E-03 -2.062498312781879E-03
 8.551197993326643E-04 -6.874994375939596E-03 -1.374998875187919E-03
 8.289567796146430E-04 -6.874994375939596E-03 -6.874994375939596E-04
 8.202483060491545E-04 -6.874994375939596E-03  0.000000000000000E+00
 8.289567796146430E-04 -6.874994375939596E-03  6.874994375939596E-04
 8.551197993326643E-04 -6.874994375939596E-03  1.374998875187919E-03
 8.988480658961752E-04 -6.874994375939596E-03  2.062498312781879E-03
 9.603196408024936E-04 -6.874994375939596E-03  2.749997750375838E-03
 1.039771958362254E-03 -6.874994375939596E-03  3.437497187969798E-03
 1.137493263709765E-03 -6.874994375939596E-03  4.124996625563758E-03
 1.253814876363362E-03 -6.874994375939596E-03  4.812496063157717E-03
 1.389105125526472E-03 -6.874994375939596E-03  5.499995500751677E-03
 1.543765256426983E-03 -6.874994375939596E-03  6.187494938345636E-03
 1.718227225456818E-03 -6.874994375939596E-03  6.874994375939596E-03
 1.912953110483809E-03 -6.874994375939596E-03  7.562493813533556E-03
 2.128435813834650E-03 -6.874994375939596E-03  8.249993251127515E-03
 2.365200766975793E-03 -6.874994375939596E-03  8.937492688721474E-03
 2.623808409962504E-03 -6.874994375939596E-03  9.624992126315434E-03
 2.904857287249926E-03 -6.874994375939596E-03  1.031249156390939E-02
 3.208987661769177E-03 -6.874994375939596E-03  1.099999100150335E-02
 3.022134756997793E-03 -6.187494938345636E-03 -1.099999100150335E-02
 2.720340646040191E-03 -6.187494938345636E-03 -1.031249156390939E-02
 2.441514205793654E-03 -6.187494938345636E-03 -9.624992126315434E-03
 2.185020347003421E-03 -6.187494938345636E-03 -8.937492688721474E-03
 1.950264291034953E-03 -6.187494938345636E-03 -8.249993251127515E-03
 1.736687702887822E-03 -6.187494938345636E-03 -7.562493813533556E-03
 1.543765256426983E-03 -6.187494938345636E-03 -6.874994375939596E-03
 1.371001726844439E-03 -6.187494938345636E-03 -6.187494938345636E-03
 1.217929783113027E-03 -6.187494938345636E-03 -5.499995500751677E-03
 1.084108755682704E-03 -6.187494938345636E-03 -4.812496063157717E-03
 9.691247753752881E-04 -6.187494938345636E-03 -4.124996625563758E-03
 8.725927904313513E-04 -6.187494938345636E-03 -3.437497187969798E-03
 7.941610040325263E-04 -6.187494938345636E-03 -2.749997750375838E-03
 7.335181205074935E-04 -6.187494938345636E-03 -2.062498312781879E-03
 6.904033090711151E-04 -6.187494938345636E-03 -1.374998875187919E-03
 6.646179331957001E-04 -6.187494938345636E-03 -6.874994375939596E-04
 6.560370443306339E-04 -6.187494938345636E-03  0.000000000000000E+00
 6.646179331957001E-04 -6.187494938345636E-03  6.874994375939596E-04
 6.904033090711151E-04 -6.187494938345636E-03  1.374998875187919E-03
 7.335181205074935E-04 -6.187494938345636E-03  2.062498312781879E-03
 7.941610040325263E-04 -6.187494938345636E-03  2.749997750375838E-03
 8.725927904313513E-04 -6.187494938345636E-03  3.437497187969798E-03
 9.691247753752881E-04 -6.187494938345636E-03  4.124996625563758E-03
 1.084108755682704E-03 -6.187494938345636E-03  4.812496063157717E-03
 1.217929783113027E-03 -6.187494938345636E-03  5.499995500751677E-03
 1.371001726844439E-03 -6.187494938345636E-03  6.187494938345636E-03
 1.543765256426983E-03 -6.187494938345636E-03  6.874994375939596E-03
 1.736687702887822E-03 -6.187494938345636E-03  7.562493813533556E-03
 1.950264291034953E-03 -6.187494938345636E-03  8.249993251127515E-03
 2.185020347003421E-03 -6.187494938345636E-03  8.937492688721474E-03
 2.441514205793654E-03 -6.187494938345636E-03  9.624992126315434E-03
 2.720340646040191E-03 -6.187494938345636E-03  1.031249156390939E-02
 3.022134756997793E-03 -6.187494938345636E-03  1.099999100150335E-02
 2.856160498248660E-03 -5.499995500751677E-03 -1.099999100150335E-02
 2.556476398886914E-03 -5.499995500751677E-03 -1.031249156390939E-02
 2.279664465419109E-03 -5.499995500751677E-03 -9.624992126315434E-03
 2.025094915004652E-03 -5.499995500751677E-03 -8.937492688721474E-03
 1.792177088582141E-03 -5.499995500751677E-03 -8.249993251127515E-03
 1.580355320144521E-03 -5.499995500751677E-03 -7.562493813533556E-03
 1.389105125526472E-03 -5.499995500751677E-03 -6.874994375939596E-03
 1.217929783113027E-03 -5.499995500751677E-03 -6.187494938345636E-03
 1.066357467283299E-03 -5.499995500751677E-03 -5.499995500751677E-03
 9.339392290173873E-04 -5.499995500751677E-03 -4.812496063157717E-03
 8.202483060491545E-04 -5.499995500751677E-03 -4.124996625563758E-03
 7.248814754491071E-04 -5.499995500751677E-03 -3.437497187969798E-03
 6.474633674860727E-04 -5.499995500751677E-03 -2.749997750375838E-03
 5.876546700542866E-04 -5.499995500751677E-03 -2.062498312781879E-03
 5.451646738280852E-04 -5.499995500751677E-03 -1.374998875187919E-03
 5.197673477120179E-04 -5.499995500751677E-03 -6.874994375939596E-04
 5.113181851944384E-04 -5.499995500751677E-03  0.000000000000000E+00
 5.197673477120179E-04 -5.499995500751677E-03  6.874994375939596E-04
 5.451646738280852E-04 -5.499995500751677E-03  1.374998875187919E-03
 5.876546700542866E-04 -5.499995500751677E-03  2.062498312781879E-03
 6.474633674860727E-04 -5.499995500751677E-03  2.749997750375838E-03
 7.248814754491071E-04 -5.499995500751677E-03  3.437497187969798E-03
 8.202483060491545E-04 -5.499995500751677E-03  4.124996625563758E-03
 9.339392290173873E-04 -5.499995500751677E-03  4.812496063157717E-03
 1.066357467283299E-03 -5.499995500751677E-03  5.499995500751677E-03
 1.217929783113027E-03 -5.499995500751677E-03  6.187494938345636E-03
 1.389105125526472E-03 -5.499995500751677E-03  6.874994375939596E-03
 1.580355320144521E-03 -5.499995500751677E-03  7.562493813533556E-03
 1.792177088582141E-03 -5.499995500751677E-03  8.249993251127515E-03
 2.025094915004652E-03 -5.499995500751677E-03  8.937492688721474E-03
 2.279664465419109E-03 -5.499995500751677E-03  9.624992126315434E-03
 2.556476398886914E-03 -5.499995500751677E-03  1.031249156390939E-02
 2.856160498248660E-03 -5.499995500751677E-03  1.099999100150335E-02
 2.710669293978317E-03 -4.812496063157717E-03 -1.099999100150335E-02
 2.412865785112374E-03 -4.812496063157717E-03 -1.031249156390939E-02
 2.137855993559497E-03 -4.812496063157717E-03 -9.624992126315434E-03
 1.885015607914582E-03 -4.812496063157717E-03 -8.937492688721474E-03
 1.653758527785418E-03 -4.812496063157717E-03 -8.249993251127515E-03
 1.443532488781930E-03 -4.812496063157717E-03 -7.562493813533556E-03
 1.253814876363362E-03 -4.812496063157717E-03 -6.874994375939596E-03
 1.084108755682704E-03 -4.812496063157717E-03 -6.187494938345636E-03
 9.339392290173873E-04 -4.812496063157717E-03 -5.499995500751677E-03
 8.028503799786200E-04 -4.812496063157717E-03 -4.812496063157717E-03
 6.904033090711138E-04 -4.812496063157717E-03 -4.124996625563758E-03
 5.961761387709667E-04 -4.812496063157717E-03 -3.437497187969798E-03
 5.197673477120179E-04 -4.812496063157717E-03 -2.749997750375838E-03
 4.608042019159850E-04 -4.812496063157717E-03 -2.062498312781879E-03
 4.189578851169849E-04 -4.812496063157717E-03 -1.374998875187919E-03
 3.939653644184841E-04 -4.812496063157717E-03 -6.874994375939596E-04
 3.856545644931826E-04 -4.812496063157717E-03  0.000000000000000E+00
 3.939653644184841E-04 -4.812496063157717E-03  6.874994375939596E-04
 4.189578851169849E-04 -4.812496063157717E-03  1.374998875187919E-03
 4.608042019159850E-04 -4.812496063157717E-03  2.062498312781879E-03
 5.197673477120179E-04 -4.812496063157717E-03  2.749997750375838E-03
 5.961761387709667E-04 -4.812496063157717E-03  3.437497187969798E-03
 6.904033090711138E-04 -4.812496063157717E-03  4.124996625563758E-03
 8.028503799786200E-04 -4.812496063157717E-03  4.812496063157717E-03
 9.339392290173873E-04 -4.812496063157717E-03  5.499995500751677E-03
 1.084108755682704E-03 -4.812496063157717E-03  6.187494938345636E-03
 1.253814876363362E-03 -4.812496063157717E-03  6.874994375939596E-03
 1.443532488781930E-03 -4.812496063157717E-03  7.562493813533556E-03
 1.653758527785418E-03 -4.812496063157717E-03  8.249993251127515E-03
 1.885015607914582E-03 -4.812496063157717E-03  8.937492688721474E-03
 2.137855993559497E-03 -4.812496063157717E-03  9.624992126315434E-03
 2.412865785112374E-03 -4.812496063157717E-03  1.031249156390939E-02
 2.710669293978317E-03 -4.812496063157717E-03  1.099999100150335E-02
 2.585308639173659E-03 -4.124996625563758E-03 -1.099999100150335E-02
 2.289151877110478E-03 -4.124996625563758E-03 -1.031249156390939E-02
 2.015725977590485E-03 -4.124996625563758E-03 -9.624992126315434E-03
 1.764412213461326E-03 -4.124996625563758E-03 -8.937492688721474E-03
 1.534629466829408E-03 -4.124996625563758E-03 -8.249993251127515E-03
 1.325829663326892E-03 -4.124996625563758E-03 -7.562493813533556E-03
 1.137493263709765E-03 -4.124996625563758E-03 -6.874994375939596E-03
 9.691247753752881E-04 -4.124996625563758E-03 -6.187494938345636E-03
 8.202483060491545E-04 -4.124996625563758E-03 -5.499995500751677E-03
 6.904033090711138E-04 -4.124996625563758E-03 -4.812496063157717E-03
 5.791409261461090E-04 -4.124996625563758E-03 -4.124996625563758E-03
 4.860218158183792E-04 -4.124996625563758E-03 -3.437497187969798E-03
 4.106171707616957E-04 -4.124996625563758E-03 -2.749997750375838E-03
 3.525157464153162E-04 -4.124996625563758E-03 -2.062498312781879E-03
 3.113405777668060E-04 -4.124996625563758E-03 -1.374998875187919E-03
 2.867779428959876E-04 -4.124996625563758E-03 -6.874994375939596E-04
 2.786156022584467E-04 -4.124996625563758E-03  0.000000000000000E+00
 2.867779428959876E-04 -4.124996625563758E-03  6.874994375939596E-04
 3.113405777668060E-04 -4.124996625563758E-03  1.374998875187919E-03
 3.525157464153162E-04 -4.124996625563758E-03  2.062498312781879E-03
 4.106171707616957E-04 -4.124996625563758E-03  2.749997750375838E-03
 4.860218158183792E-04 -4.124996625563758E-03  3.437497187969798E-03
 5.791409261461090E-04 -4.124996625563758E-03  4.124996625563758E-03
 6.904033090711138E-04 -4.124996625563758E-03  4.812496063157717E-03
 8.202483060491545E-04 -4.124996625563758E-03  5.499995500751677E-03
 9.691247753752881E-04 -4.124996625563758E-03  6.187494938345636E-03
 1.137493263709765E-03 -4.124996625563758E-03  6.874994375939596E-03
 1.325829663326892E-03 -4.124996625563758E-03  7.562493813533556E-03
 1.534629466829408E-03 -4.124996625563758E-03  8.249993251127515E-03
 1.764412213461326E-03 -4.124996625563758E-03  8.937492688721474E-03
 2.015725977590485E-03 -4.124996625563758E-03  9.624992126315434E-03
 2.289151877110478E-03 -4.124996625563758E-03  1.031249156390939E-02
 2.585308639173659E-03 -4.124996625563758E-03  1.099999100150335E-02
 2.479769548018858E-03 -3.437497187969798E-03 -1.099999100150335E-02
 2.185020347003422E-03 -3.437497187969798E-03 -1.031249156390939E-02
 1.912953110483809E-03 -3.437497187969798E-03 -9.624992126315434E-03
 1.662954657186484E-03 -3.437497187969798E-03 -8.937492688721474E-03
 1.434449130384465E-03 -3.437497187969798E-03 -8.249993251127515E-03
 1.226893324303651E-03 -3.437497187969798E-03 -7.562493813533556E-03
 1.039771958362254E-03 -3.437497187969798E-03 -6.874994375939596E-03
 8.725927904313513E-04 -3.437497187969798E-03 -6.187494938345636E-03
 7.248814754491071E-04 -3.437497187969798E-03 -5.499995500751677E-03
 5.961761387709667E-04 -3.437497187969798E-03 -4.812496063157717E-03
 4.860218158183792E-04 -3.437497187969798E-03 -4.124996625563758E-03
 3.939653644184841E-04 -3.437497187969798E-03 -3.437497187969798E-03
 3.195524762017884E-04 -3.437497187969798E-03 -2.749997750375838E-03
 2.623304069549257E-04 -3.437497187969798E-03 -2.062498312781879E-03
 2.218630283073197E-04 -3.437497187969798E-03 -1.374998875187919E-03
 1.977665497894945E-04 -3.437497187969798E-03 -6.874994375939596E-04
 1.897678385643679E-04 -3.437497187969798E-03  0.000000000000000E+00
 1.977665497894945E-04 -3.437497187969798E-03  6.874994375939596E-04
 2.218630283073197E-04 -3.437497187969798E-03  1.374998875187919E-03
 2.623304069549257E-04 -3.437497187969798E-03  2.062498312781879E-03
 3.195524762017884E-04 -3.437497187969798E-03  2.749997750375838E-03
 3.939653644184841E-04 -3.437497187969798E-03  3.437497187969798E-03
 4.860218158183792E-04 -3.437497187969798E-03  4.124996625563758E-03
 5.961761387709667E-04 -3.437497187969798E-03  4.812496063157717E-03
 7.248814754491071E-04 -3.437497187969798E-03  5.499995500751677E-03
 8.725927904313513E-04 -3.437497187969798E-03  6.187494938345636E-03
 1.039771958362254E-03 -3.437497187969798E-03  6.874994375939596E-03
 1.226893324303651E-03 -3.437497187969798E-03  7.562493813533556E-03
 1.434449130384465E-03 -3.437497187969798E-03  8.249993251127515E-03
 1.662954657186484E-03 -3.437497187969798E-03  8.937492688721474E-03
 1.912953110483809E-03 -3.437497187969798E-03  9.624992126315434E-03
 2.185020347003422E-03 -3.437497187969798E-03  1.031249156390939E-02
 2.479769548018858E-03 -3.437497187969798E-03  1.099999100150335E-02
 2.393787407398482E-03 -2.749997750375838E-03 -1.099999100150335E-02
 2.100200744902051E-03 -2.749997750375838E-03 -1.031249156390939E-02
 1.829259357148148E-03 -2.749997750375838E-03 -9.624992126315434E-03
 1.580355320144512E-03 -2.749997750375838E-03 -8.937492688721474E-03
 1.352918029808345E-03 -2.749997750375838E-03 -8.249993251127515E-03
 1.146409516441498E-03 -2.749997750375838E-03 -7.562493813533556E-03
 9.603196408024936E-04 -2.749997750375838E-03 -6.874994375939596E-03
 7.941610040325263E-04 -2.749997750375838E-03 -6.187494938345636E-03
 6.474633674860727E-04 -2.749997750375838E-03 -5.499995500751677E-03
 5.197673477120179E-04 -2.749997750375838E-03 -4.812496063157717E-03
 4.106171707616957E-04 -2.749997750375838E-03 -4.124996625563758E-03
 3.195524762017884E-04 -2.749997750375838E-03 -3.437497187969798E-03
 2.460999431845812E-04 -2.749997750375838E-03 -2.749997750375838E-03
 1.897678385643679E-04 -2.749997750375838E-03 -2.062498312781879E-03
 1.500522626856465E-04 -2.749997750375838E-03 -1.374998875187919E-03
 1.264733697758216E-04 -2.749997750375838E-03 -6.874994375939596E-04
 1.186614163216500E-04 -2.749997750375838E-03  0.000000000000000E+00
 1.264733697758216E-04 -2.749997750375838E-03  6.874994375939596E-04
 1.500522626856465E-04 -2.749997750375838E-03  1.374998875187919E-03
 1.897678385643679E-04 -2.749997750375838E-03  2.062498312781879E-03
 2.460999431845812E-04 -2.749997750375838E-03  2.749997750375838E-03
 3.195524762017884E-04 -2.749997750375838E-03  3.437497187969798E-03
 4.106171707616957E-04 -2.749997750375838E-03  4.124996625563758E-03
 5.197673477120179E-04 -2.749997750375838E-03  4.812496063157717E-03
 6.474633674860727E-04 -2.749997750375838E-03  5.499995500751677E-03
 7.941610040325263E-04 -2.749997750375838E-03  6.187494938345636E-03
 9.603196408024936E-04 -2.749997750375838E-03  6.874994375939596E-03
 1.146409516441498E-03 -2.749997750375838E-03  7.562493813533556E-03
 1.352918029808345E-03 -2.749997750375838E-03  8.249993251127515E-03
 1.580355320144512E-03 -2.749997750375838E-03  8.937492688721474E-03
 1.829259357148148E-03 -2.749997750375838E-03  9.624992126315434E-03
 2.100200744902051E-03 -2.749997750375838E-03  1.031249156390939E-02
 2.393787407398482E-03 -2.749997750375838E-03  1.099999100150335E-02
 2.327143131594386E-03 -2.062498312781879E-03 -1.099999100150335E-02
 2.034468152179847E-03 -2.062498312781879E-03 -1.031249156390939E-02
 1.764412213461332E-03 -2.062498312781879E-03 -9.624992126315434E-03
 1.516372032101157E-03 -2.062498312781879E-03 -8.937492688721474E-03